[Molden Format]
[Title]
 Molden file created by orca_2mkl for BaseName=./TOL

[Atoms] AU
C    1   6          1.9051077688         1.8892067729         0.0077830423 
C    2   6         -0.9458108843         1.8946524985        -0.0019015346 
C    3   6         -2.3214850033         1.8928369668         2.2484438603 
C    4   6         -4.9537850218         1.8846423559         2.2310769806 
C    5   6         -6.2587244808         1.8792111852        -0.0490813787 
C    6   6         -4.9105572638         1.8827376645        -2.3100278937 
C    7   6         -2.2839471760         1.8908936969        -2.2815793121 
H    8   1          2.6486911575         2.0364928210         1.9247567243 
H    9   1          2.6624672881         3.4678429879        -1.0884042714 
H   10   1          2.6524582767         0.1519864945        -0.8260533051 
H   11   1         -1.3229405498         1.8989050657         4.0383893495 
H   12   1         -5.9814476428         1.8842636611         4.0025980085 
H   13   1         -8.3058731374         1.8740794840        -0.0682754865 
H   14   1         -5.9087673363         1.8809510904        -4.0984018987 
H   15   1         -1.2535947935         1.8956152886        -4.0543557797 
[GTO]
  1 0
s   6 1.0 
    13575.3496820000         0.5435951735
     2035.2333680000         1.0145521571
      463.2256235900         1.7315729053
      131.2001959800         2.6910372890
       42.8530158900         3.6044547339
       15.5841857700         3.7025557541
s   2 1.0 
        6.2067138500         1.8383540665
        2.5764896500         0.5447575690
s   1 1.0 
        0.5769633900         0.4718145012
s   1 1.0 
        0.2297283100         0.2364944648
s   1 1.0 
        0.0951644400         0.1221141848
p   4 1.0 
       34.6972322400         1.3596662229
        7.9582622800         1.4512589862
        2.3780826900         1.2709231150
        0.8143320800         0.8025721212
p   1 1.0 
        0.2888754700         0.3018758836
p   1 1.0 
        0.1005682400         0.0807265050
d   1 1.0 
        0.8000000000         1.9292013661

  2 0
s   6 1.0 
    13575.3496820000         0.5435951735
     2035.2333680000         1.0145521571
      463.2256235900         1.7315729053
      131.2001959800         2.6910372890
       42.8530158900         3.6044547339
       15.5841857700         3.7025557541
s   2 1.0 
        6.2067138500         1.8383540665
        2.5764896500         0.5447575690
s   1 1.0 
        0.5769633900         0.4718145012
s   1 1.0 
        0.2297283100         0.2364944648
s   1 1.0 
        0.0951644400         0.1221141848
p   4 1.0 
       34.6972322400         1.3596662229
        7.9582622800         1.4512589862
        2.3780826900         1.2709231150
        0.8143320800         0.8025721212
p   1 1.0 
        0.2888754700         0.3018758836
p   1 1.0 
        0.1005682400         0.0807265050
d   1 1.0 
        0.8000000000         1.9292013661

  3 0
s   6 1.0 
    13575.3496820000         0.5435951735
     2035.2333680000         1.0145521571
      463.2256235900         1.7315729053
      131.2001959800         2.6910372890
       42.8530158900         3.6044547339
       15.5841857700         3.7025557541
s   2 1.0 
        6.2067138500         1.8383540665
        2.5764896500         0.5447575690
s   1 1.0 
        0.5769633900         0.4718145012
s   1 1.0 
        0.2297283100         0.2364944648
s   1 1.0 
        0.0951644400         0.1221141848
p   4 1.0 
       34.6972322400         1.3596662229
        7.9582622800         1.4512589862
        2.3780826900         1.2709231150
        0.8143320800         0.8025721212
p   1 1.0 
        0.2888754700         0.3018758836
p   1 1.0 
        0.1005682400         0.0807265050
d   1 1.0 
        0.8000000000         1.9292013661

  4 0
s   6 1.0 
    13575.3496820000         0.5435951735
     2035.2333680000         1.0145521571
      463.2256235900         1.7315729053
      131.2001959800         2.6910372890
       42.8530158900         3.6044547339
       15.5841857700         3.7025557541
s   2 1.0 
        6.2067138500         1.8383540665
        2.5764896500         0.5447575690
s   1 1.0 
        0.5769633900         0.4718145012
s   1 1.0 
        0.2297283100         0.2364944648
s   1 1.0 
        0.0951644400         0.1221141848
p   4 1.0 
       34.6972322400         1.3596662229
        7.9582622800         1.4512589862
        2.3780826900         1.2709231150
        0.8143320800         0.8025721212
p   1 1.0 
        0.2888754700         0.3018758836
p   1 1.0 
        0.1005682400         0.0807265050
d   1 1.0 
        0.8000000000         1.9292013661

  5 0
s   6 1.0 
    13575.3496820000         0.5435951735
     2035.2333680000         1.0145521571
      463.2256235900         1.7315729053
      131.2001959800         2.6910372890
       42.8530158900         3.6044547339
       15.5841857700         3.7025557541
s   2 1.0 
        6.2067138500         1.8383540665
        2.5764896500         0.5447575690
s   1 1.0 
        0.5769633900         0.4718145012
s   1 1.0 
        0.2297283100         0.2364944648
s   1 1.0 
        0.0951644400         0.1221141848
p   4 1.0 
       34.6972322400         1.3596662229
        7.9582622800         1.4512589862
        2.3780826900         1.2709231150
        0.8143320800         0.8025721212
p   1 1.0 
        0.2888754700         0.3018758836
p   1 1.0 
        0.1005682400         0.0807265050
d   1 1.0 
        0.8000000000         1.9292013661

  6 0
s   6 1.0 
    13575.3496820000         0.5435951735
     2035.2333680000         1.0145521571
      463.2256235900         1.7315729053
      131.2001959800         2.6910372890
       42.8530158900         3.6044547339
       15.5841857700         3.7025557541
s   2 1.0 
        6.2067138500         1.8383540665
        2.5764896500         0.5447575690
s   1 1.0 
        0.5769633900         0.4718145012
s   1 1.0 
        0.2297283100         0.2364944648
s   1 1.0 
        0.0951644400         0.1221141848
p   4 1.0 
       34.6972322400         1.3596662229
        7.9582622800         1.4512589862
        2.3780826900         1.2709231150
        0.8143320800         0.8025721212
p   1 1.0 
        0.2888754700         0.3018758836
p   1 1.0 
        0.1005682400         0.0807265050
d   1 1.0 
        0.8000000000         1.9292013661

  7 0
s   6 1.0 
    13575.3496820000         0.5435951735
     2035.2333680000         1.0145521571
      463.2256235900         1.7315729053
      131.2001959800         2.6910372890
       42.8530158900         3.6044547339
       15.5841857700         3.7025557541
s   2 1.0 
        6.2067138500         1.8383540665
        2.5764896500         0.5447575690
s   1 1.0 
        0.5769633900         0.4718145012
s   1 1.0 
        0.2297283100         0.2364944648
s   1 1.0 
        0.0951644400         0.1221141848
p   4 1.0 
       34.6972322400         1.3596662229
        7.9582622800         1.4512589862
        2.3780826900         1.2709231150
        0.8143320800         0.8025721212
p   1 1.0 
        0.2888754700         0.3018758836
p   1 1.0 
        0.1005682400         0.0807265050
d   1 1.0 
        0.8000000000         1.9292013661

  8 0
s   3 1.0 
       34.0613410000         0.2556300129
        5.1235746000         0.4613599287
        1.1646626000         0.6811215012
s   1 1.0 
        0.3272304100         0.3083545312
s   1 1.0 
        0.1030724100         0.1296483265
p   1 1.0 
        0.8000000000         1.0784563492

  9 0
s   3 1.0 
       34.0613410000         0.2556300129
        5.1235746000         0.4613599287
        1.1646626000         0.6811215012
s   1 1.0 
        0.3272304100         0.3083545312
s   1 1.0 
        0.1030724100         0.1296483265
p   1 1.0 
        0.8000000000         1.0784563492

 10 0
s   3 1.0 
       34.0613410000         0.2556300129
        5.1235746000         0.4613599287
        1.1646626000         0.6811215012
s   1 1.0 
        0.3272304100         0.3083545312
s   1 1.0 
        0.1030724100         0.1296483265
p   1 1.0 
        0.8000000000         1.0784563492

 11 0
s   3 1.0 
       34.0613410000         0.2556300129
        5.1235746000         0.4613599287
        1.1646626000         0.6811215012
s   1 1.0 
        0.3272304100         0.3083545312
s   1 1.0 
        0.1030724100         0.1296483265
p   1 1.0 
        0.8000000000         1.0784563492

 12 0
s   3 1.0 
       34.0613410000         0.2556300129
        5.1235746000         0.4613599287
        1.1646626000         0.6811215012
s   1 1.0 
        0.3272304100         0.3083545312
s   1 1.0 
        0.1030724100         0.1296483265
p   1 1.0 
        0.8000000000         1.0784563492

 13 0
s   3 1.0 
       34.0613410000         0.2556300129
        5.1235746000         0.4613599287
        1.1646626000         0.6811215012
s   1 1.0 
        0.3272304100         0.3083545312
s   1 1.0 
        0.1030724100         0.1296483265
p   1 1.0 
        0.8000000000         1.0784563492

 14 0
s   3 1.0 
       34.0613410000         0.2556300129
        5.1235746000         0.4613599287
        1.1646626000         0.6811215012
s   1 1.0 
        0.3272304100         0.3083545312
s   1 1.0 
        0.1030724100         0.1296483265
p   1 1.0 
        0.8000000000         1.0784563492

 15 0
s   3 1.0 
       34.0613410000         0.2556300129
        5.1235746000         0.4613599287
        1.1646626000         0.6811215012
s   1 1.0 
        0.3272304100         0.3083545312
s   1 1.0 
        0.1030724100         0.1296483265
p   1 1.0 
        0.8000000000         1.0784563492

[5D]
[7F]
[9G]
[MO]
 Sym=     1a
 Ene= -1.01809068957555E+01
 Spin= Alpha
 Occup= 2.000000
  1       0.003808911297
  2       0.005089285415
  3      -0.000805722412
  4       0.006164649557
  5      -0.003958281797
  6       0.000046476101
  7      -0.000010334189
  8      -0.000049936963
  9      -0.001782926711
 10       0.000050225728
 11       0.000250601725
 12       0.002597861359
 13      -0.000250477588
 14      -0.001289088381
 15       0.000203330810
 16       0.000008398358
 17       0.000000489315
 18      -0.000337148759
 19       0.000004267925
 20       0.466457045668
 21       0.608541556190
 22       0.038416037337
 23      -0.033299664559
 24       0.062388136182
 25       0.000080430368
 26      -0.000006409250
 27      -0.000008321342
 28      -0.000995379442
 29       0.000016840628
 30      -0.000037860007
 31      -0.015645826802
 32      -0.000012304652
 33      -0.000313801780
 34       0.000308901941
 35      -0.000007837422
 36       0.000000231074
 37       0.000032893295
 38       0.000002900380
 39       0.010323845460
 40       0.013717124812
 41      -0.000326064810
 42       0.005442074004
 43      -0.044650107039
 44      -0.000049032921
 45       0.000000909885
 46       0.000046216133
 47       0.000742078401
 48      -0.000004880278
 49       0.000076699884
 50       0.007199177163
 51       0.000043574146
 52       0.010707884627
 53      -0.000301155428
 54       0.000685290858
 55       0.000003464999
 56      -0.000007270890
 57       0.000001220157
 58       0.000010794444
 59       0.000094559583
 60      -0.000369693023
 61       0.000008555730
 62       0.026534151283
 63      -0.000129925337
 64      -0.000000982770
 65       0.000116516122
 66       0.000157140786
 67       0.000003941939
 68      -0.000477042832
 69       0.007437644251
 70       0.000003918747
 71      -0.004788672307
 72       0.000071956527
 73       0.000109680023
 74       0.000000558236
 75      -0.000023381328
 76       0.000000308093
 77      -0.000313093139
 78      -0.000327541673
 79      -0.000433713470
 80       0.000759338980
 81      -0.015529203973
 82      -0.000101527188
 83      -0.000000058506
 84       0.000003401823
 85      -0.000020920223
 86      -0.000001458808
 87      -0.000020130723
 88      -0.007213748884
 89      -0.000009133495
 90       0.000426624040
 91      -0.000008263517
 92      -0.000000448007
 93      -0.000000058954
 94      -0.000030243849
 95      -0.000000542744
 96       0.000010925271
 97       0.000095395658
 98      -0.000382999864
 99       0.000098689746
100       0.024065581698
101      -0.000122002266
102      -0.000001151010
103      -0.000125879074
104       0.000119370659
105       0.000004729060
106       0.000490301182
107       0.005575546574
108      -0.000000872036
109       0.004695769332
110       0.000069097720
111      -0.000107548411
112      -0.000000428227
113      -0.000022359792
114       0.000000181353
115       0.010094720153
116       0.013401445245
117      -0.000210941878
118       0.005015333173
119      -0.041879948109
120      -0.000034476703
121       0.000001102183
122      -0.000035820801
123       0.000700222253
124      -0.000006115644
125      -0.000094566324
126       0.005124850041
127       0.000033336818
128      -0.010117407294
129      -0.000326274210
130      -0.000676208884
131      -0.000003769134
132       0.000000165407
133       0.000000933025
134      -0.000134526898
135      -0.000505272384
136       0.000649713001
137       0.000130406497
138       0.000016378364
139       0.000191648364
140      -0.000114761305
141      -0.000469020453
142      -0.000993675196
143       0.000159034923
144       0.000140941389
145      -0.000095360560
146      -0.000113132082
147      -0.000461670476
148      -0.001284447361
149       0.000173335261
150      -0.000149577172
151      -0.000070038529
152      -0.000123728444
153      -0.001126103399
154      -0.000439206612
155       0.000029389940
156       0.000001274455
157       0.000367335956
158      -0.000006354354
159       0.000289048622
160       0.000641895785
161       0.000003922679
162       0.000000378248
163      -0.000124548960
164       0.000030061040
165      -0.000222844804
166      -0.001456019018
167       0.000036023337
168      -0.000000144535
169      -0.000002715925
170      -0.000000292010
171       0.000244647072
172       0.000351502886
173       0.000012542868
174       0.000000752190
175       0.000111634626
176      -0.000123436006
177      -0.001002944294
178      -0.000041228104
179       0.000042538869
180       0.000001627818
181      -0.000354918910
 Sym=     1a
 Ene= -1.01712933426178E+01
 Spin= Alpha
 Occup= 2.000000
  1       0.000000908484
  2      -0.000005919175
  3       0.000025742552
  4      -0.000530937073
  5       0.006436757774
  6       0.000049184476
  7      -0.000001679407
  8      -0.000050029558
  9      -0.000041543043
 10      -0.000007589781
 11       0.000208095294
 12      -0.001784182530
 13      -0.000081205399
 14       0.000167007279
 15      -0.000016681849
 16      -0.000009504954
 17      -0.000001505143
 18       0.000004145587
 19      -0.000001245013
 20      -0.001117373149
 21      -0.001349597786
 22      -0.000424850364
 23      -0.000272103407
 24       0.010987279771
 25       0.000159194672
 26      -0.000001437795
 27      -0.000040611262
 28       0.000229835976
 29       0.000009976175
 30       0.000804076988
 31      -0.005863797656
 32      -0.000003759120
 33      -0.010197312642
 34      -0.000046439622
 35      -0.000194843060
 36      -0.000000330683
 37      -0.000047491167
 38       0.000002300368
 39       0.001616141241
 40       0.002238925863
 41      -0.000518171632
 42       0.001084331885
 43       0.001062170942
 44       0.000041239758
 45       0.000001779455
 46       0.000156143282
 47       0.000039720213
 48      -0.000008359895
 49      -0.000398117879
 50       0.003907501159
 51       0.000032227748
 52       0.001315576328
 53       0.000034688575
 54      -0.000015248649
 55       0.000000607347
 56      -0.000072619555
 57       0.000000140898
 58       0.033162029607
 59       0.043385932784
 60       0.002103147015
 61      -0.001240948033
 62       0.012081808143
 63      -0.000049268285
 64      -0.000000619662
 65       0.000159355780
 66       0.000384345819
 67       0.000004890941
 68       0.000329725276
 69      -0.001544859583
 70      -0.000024496771
 71      -0.002180288409
 72      -0.000136205809
 73      -0.000147518151
 74      -0.000000283448
 75       0.000107808528
 76       0.000000752749
 77       0.060270904927
 78       0.078878369440
 79       0.003799571602
 80       0.002245426903
 81      -0.026104246774
 82      -0.000056579319
 83       0.000000152234
 84      -0.000024970666
 85       0.000428862517
 86       0.000000451098
 87      -0.000109436525
 88      -0.005843189052
 89      -0.000006508666
 90       0.000289772792
 91      -0.000438542432
 92       0.000516584154
 93       0.000001421974
 94       0.000112520016
 95       0.000000352683
 96       0.458872699751
 97       0.598708901339
 98       0.036862069907
 99      -0.028030594590
100       0.035308081322
101       0.000095558848
102       0.000000353328
103       0.000164878507
104      -0.001054274881
105      -0.000000136072
106      -0.002064637405
107       0.003318028732
108      -0.000004374397
109       0.011845571106
110       0.000417520442
111       0.000352726053
112       0.000000425021
113       0.000350891589
114       0.000001843725
115       0.049608774602
116       0.064954408611
117       0.002975737032
118       0.002732898787
119      -0.030186940182
120       0.000037336029
121       0.000000909692
122      -0.000077302051
123      -0.000196235431
124      -0.000005780518
125       0.000554730753
126      -0.002068849504
127       0.000008555271
128      -0.009375076922
129       0.000554078892
130      -0.000058024950
131      -0.000001101567
132      -0.000450881332
133      -0.000002264549
134      -0.000002314353
135      -0.000080069949
136      -0.000323231342
137      -0.000034309483
138       0.000005363426
139       0.000035077974
140       0.000090578187
141      -0.000484371572
142      -0.000438486639
143       0.000058009662
144       0.000001838824
145       0.000006737810
146       0.000090624316
147      -0.000495685834
148      -0.000554194653
149       0.000063543949
150      -0.000009050175
151       0.000009377963
152      -0.000010933126
153       0.000039894968
154      -0.001317210994
155      -0.000033668208
156       0.000000408578
157      -0.000078225185
158      -0.000021578607
159      -0.000126332552
160      -0.001033587672
161      -0.000000430515
162       0.000001142031
163       0.000070197753
164      -0.000187298625
165      -0.000225900007
166       0.000346355861
167      -0.000307861506
168      -0.000001084602
169       0.000094525329
170      -0.000411997148
171       0.000735516031
172       0.000266985155
173      -0.000637746085
174      -0.000000644755
175      -0.001181999105
176      -0.000163534762
177      -0.000137893670
178       0.000028953558
179       0.000237671035
180       0.000001388044
181      -0.000151118996
 Sym=     1a
 Ene= -1.01709332052141E+01
 Spin= Alpha
 Occup= 2.000000
  1       0.000030517974
  2       0.000040578556
  3      -0.000022485150
  4       0.000427749106
  5      -0.003735282753
  6      -0.000032850734
  7       0.000002245976
  8      -0.000029213398
  9       0.000026858904
 10       0.000002930007
 11       0.000209992724
 12       0.001217009606
 13       0.000095628426
 14       0.001260580045
 15       0.000003065664
 16      -0.000002946838
 17      -0.000002920378
 18      -0.000024409784
 19       0.000001181036
 20       0.001112632095
 21       0.001352823142
 22       0.000402426161
 23       0.000191510195
 24      -0.011360728371
 25      -0.000131784452
 26       0.000000466766
 27      -0.000035289216
 28      -0.000256029827
 29      -0.000004379939
 30       0.000859161755
 31       0.004956237720
 32      -0.000024255566
 33      -0.010892170543
 34       0.000043306426
 35      -0.000245114523
 36      -0.000000210179
 37       0.000041647753
 38      -0.000002108197
 39      -0.057320079335
 40      -0.075003211555
 41      -0.003606686224
 42      -0.002367619749
 43       0.031838972047
 44      -0.000022482526
 45      -0.000000319205
 46      -0.000056813417
 47       0.000216473346
 48       0.000002842998
 49       0.000492149584
 50       0.001326314542
 51      -0.000001800929
 52      -0.009464530115
 53      -0.000569983028
 54      -0.000040081513
 55      -0.000001581328
 56       0.000427453745
 57       0.000002400509
 58      -0.457086538718
 59      -0.596374981810
 60      -0.036765048983
 61       0.027874678798
 62      -0.034753690317
 63      -0.000104108152
 64      -0.000000491711
 65       0.000187995865
 66       0.001173607711
 67       0.000000363629
 68      -0.001951954653
 69      -0.005037313782
 70      -0.000001810810
 71       0.011579337609
 72      -0.000444811454
 73       0.000340619945
 74      -0.000000622095
 75      -0.000326994653
 76      -0.000001394881
 77      -0.061984856837
 78      -0.081080360788
 79      -0.004095840886
 80      -0.001164109475
 81       0.021919739744
 82       0.000047619877
 83      -0.000000053694
 84      -0.000027024514
 85      -0.000293045900
 86      -0.000000907209
 87      -0.000076572541
 88       0.004917934608
 89       0.000010778394
 90      -0.000412426360
 91       0.000391109814
 92       0.000597354311
 93       0.000002283890
 94      -0.000117410810
 95       0.000000017868
 96       0.040647189558
 97       0.052908423830
 98       0.003862544837
 99      -0.003407581527
100      -0.005335641093
101       0.000065197768
102       0.000000744318
103       0.000193250493
104      -0.000581633289
105      -0.000004332091
106      -0.000031063145
107       0.003231370492
108       0.000021108812
109      -0.000698815216
110       0.000209376079
111      -0.000112500311
112      -0.000000071515
113      -0.000049749405
114      -0.000000579210
115       0.007299631350
116       0.009432509641
117       0.001039970598
118      -0.000563904915
119      -0.006290403043
120      -0.000050215249
121      -0.000001448994
122       0.000155625242
123      -0.000054031189
124       0.000006510425
125      -0.000398319953
126      -0.002823025841
127      -0.000018109263
128       0.000457796446
129       0.000052574552
130      -0.000031721074
131       0.000000381918
132       0.000004898438
133      -0.000000547545
134      -0.000044971563
135       0.000200633422
136      -0.000527385005
137      -0.000025341738
138       0.000004070024
139       0.000038362842
140      -0.000010901966
141       0.000076923346
142       0.000470900939
143       0.000011651371
144      -0.000015847953
145       0.000010498036
146      -0.000021459806
147       0.000125807775
148       0.000531086884
149      -0.000003600994
150       0.000012470869
151       0.000012441705
152       0.000166649795
153       0.000209985311
154       0.000115870536
155      -0.000248391570
156      -0.000001560939
157      -0.000191117754
158       0.000422549798
159      -0.000792605714
160      -0.000697469606
161       0.000667877727
162       0.000000247000
163      -0.001163540929
164       0.000167870181
165       0.000171365010
166      -0.000262846435
167       0.000286012606
168       0.000000861847
169       0.000119261404
170      -0.000041398366
171       0.000239352903
172       0.001035429794
173      -0.000112365369
174      -0.000001107253
175      -0.000114267204
176      -0.000018131453
177      -0.000139047207
178       0.001494540124
179       0.000078665172
180      -0.000000746271
181      -0.000118503595
 Sym=     1a
 Ene= -1.01689651563188E+01
 Spin= Alpha
 Occup= 2.000000
  1       0.000457391349
  2       0.000581401182
  3       0.000069046585
  4      -0.000059747565
  5       0.000465952413
  6      -0.000022426820
  7      -0.000003307765
  8      -0.000009506012
  9      -0.000065324812
 10       0.000015874318
 11       0.000043394004
 12      -0.000504648469
 13      -0.000134803195
 14      -0.000715846307
 15      -0.000029420451
 16       0.000000860031
 17      -0.000000812158
 18       0.000021690084
 19       0.000001019962
 20       0.003031310637
 21       0.003949138835
 22       0.000223806528
 23      -0.000945965662
 24       0.000288840470
 25       0.000073104193
 26       0.000000160581
 27      -0.000000228175
 28      -0.000003514261
 29      -0.000000476999
 30      -0.000000545683
 31       0.000779939510
 32       0.000050459302
 33       0.000341154341
 34       0.000069133647
 35      -0.000023897592
 36      -0.000000151037
 37      -0.000022109947
 38       0.000001335203
 39      -0.070903304350
 40      -0.092474143314
 41      -0.005794730352
 42       0.003155717451
 43       0.012111088328
 44       0.000097993274
 45       0.000000850675
 46       0.000106257256
 47       0.000468484031
 48      -0.000000762915
 49      -0.000515247794
 50      -0.005160919630
 51      -0.000026374456
 52       0.001004589106
 53      -0.000005649526
 54      -0.000157670427
 55      -0.000000016063
 56      -0.000073296142
 57      -0.000000315712
 58      -0.057713499085
 59      -0.075124721200
 60      -0.005408681853
 61       0.008515315042
 62      -0.035364744469
 63      -0.000056275645
 64      -0.000000356333
 65       0.000028310303
 66       0.000322202808
 67       0.000001712277
 68      -0.000783034353
 69      -0.005613911408
 70      -0.000012364399
 71       0.006946828034
 72      -0.000450535874
 73      -0.000546673034
 74      -0.000001858811
 75       0.000011345760
 76      -0.000000224291
 77       0.451951037619
 78       0.589553140761
 79       0.036822977908
 80      -0.029929069954
 81       0.047398752122
 82       0.000278937835
 83       0.000002013169
 84       0.000001797259
 85      -0.002510266786
 86      -0.000007903568
 87       0.000011733395
 88       0.015429770472
 89       0.000047399206
 90      -0.000002941431
 91       0.000103496209
 92       0.000028213354
 93       0.000000421623
 94       0.000629413720
 95       0.000003085564
 96      -0.049376832425
 97      -0.064246867865
 98      -0.004746074550
 99       0.008208017496
100      -0.036597725749
101      -0.000048138849
102      -0.000000492443
103      -0.000018831487
104       0.000251608608
105       0.000002979082
106       0.000784606415
107      -0.005674212963
108      -0.000022569249
109      -0.007271182003
110      -0.000395329959
111       0.000562296997
112       0.000001234568
113      -0.000009063392
114       0.000000130242
115      -0.052471233062
116      -0.068429764011
117      -0.004307965524
118       0.002134574323
119       0.013956787826
120       0.000089203704
121       0.000001110708
122      -0.000087970316
123       0.000533366320
124      -0.000002060091
125       0.000434028955
126      -0.005842321563
127      -0.000022756426
128      -0.000424929998
129       0.000027603623
130       0.000146961979
131      -0.000000033774
132      -0.000068354437
133       0.000000026686
134       0.000007102068
135      -0.000030145843
136       0.000779286268
137      -0.000019461494
138      -0.000001670365
139       0.000012875951
140       0.000016107479
141      -0.000127652433
142      -0.000061833235
143       0.000003811578
144       0.000003343005
145      -0.000004733782
146       0.000017545502
147      -0.000132700430
148      -0.000201539189
149       0.000009248713
150      -0.000002113079
151       0.000001149256
152       0.000071186478
153      -0.000047254085
154      -0.000773735583
155      -0.000104414848
156       0.000000105824
157      -0.000245389460
158      -0.000060520029
159      -0.000390398272
160       0.000248566119
161       0.000124926183
162       0.000000506010
163       0.000029043215
164      -0.000354026211
165       0.000905637687
166       0.000541602437
167      -0.001279240213
168      -0.000003286464
169      -0.000009584996
170      -0.000073197299
171      -0.000402604298
172       0.000219803181
173       0.000107463266
174       0.000000606616
175      -0.000059501723
176       0.000052172169
177      -0.000012068513
178      -0.000500648592
179      -0.000072443842
180       0.000000660995
181       0.000191658932
 Sym=     1a
 Ene= -1.01686835834758E+01
 Spin= Alpha
 Occup= 2.000000
  1      -0.001421186005
  2      -0.001794834576
  3      -0.000325872996
  4       0.000290526551
  5      -0.003251751023
  6       0.000036773107
  7      -0.000001385034
  8      -0.000018583491
  9      -0.000003723945
 10       0.000014776739
 11       0.000000933814
 12      -0.000004376055
 13       0.000001968027
 14      -0.001124540566
 15       0.000077840995
 16       0.000092783274
 17       0.000014936249
 18       0.000063093177
 19       0.000001128013
 20      -0.006117076433
 21      -0.007830359661
 22      -0.001160187472
 23       0.003869061104
 24      -0.019629035526
 25       0.000010091155
 26       0.000002571754
 27       0.000150145876
 28      -0.000419537255
 29      -0.000013079532
 30      -0.000460766678
 31       0.005507556550
 32       0.000047279491
 33       0.009298538473
 34      -0.000232137301
 35       0.000676241612
 36       0.000000130851
 37      -0.000022705085
 38      -0.000001399463
 39       0.431482957891
 40       0.562865109459
 41       0.035054126979
 42      -0.027795448746
 43       0.034512000882
 44      -0.000082599136
 45      -0.000003378761
 46      -0.000208167169
 47       0.001253407232
 48       0.000016449970
 49       0.001668530466
 50      -0.010986922703
 51      -0.000079603949
 52      -0.007480716455
 53       0.000375177693
 54       0.000152543312
 55       0.000001964314
 56       0.000440365244
 57       0.000002838300
 58      -0.061332634791
 59      -0.079814578182
 60      -0.005749296107
 61       0.009097351670
 62      -0.036502310615
 63      -0.000019461150
 64       0.000000576757
 65       0.000049543987
 66       0.000550569799
 67      -0.000002438803
 68      -0.000642544399
 69      -0.005061229813
 70       0.000013370392
 71       0.006341256780
 72       0.000378399558
 73      -0.000100566477