 Generated by Multiwfn
GAUSSIAN             25 MOL ORBITALS    309 PRIMITIVES       15 NUCLEI
  C    1    (CENTRE  1)   1.90510777  1.88920677  0.00778304  CHARGE =  6.0
  C    2    (CENTRE  2)  -0.94581088  1.89465250 -0.00190153  CHARGE =  6.0
  C    3    (CENTRE  3)  -2.32148500  1.89283697  2.24844386  CHARGE =  6.0
  C    4    (CENTRE  4)  -4.95378502  1.88464236  2.23107698  CHARGE =  6.0
  C    5    (CENTRE  5)  -6.25872448  1.87921119 -0.04908138  CHARGE =  6.0
  C    6    (CENTRE  6)  -4.91055726  1.88273766 -2.31002789  CHARGE =  6.0
  C    7    (CENTRE  7)  -2.28394718  1.89089370 -2.28157931  CHARGE =  6.0
  H    8    (CENTRE  8)   2.64869116  2.03649282  1.92475672  CHARGE =  1.0
  H    9    (CENTRE  9)   2.66246729  3.46784299 -1.08840427  CHARGE =  1.0
  H   10    (CENTRE 10)   2.65245828  0.15198649 -0.82605331  CHARGE =  1.0
  H   11    (CENTRE 11)  -1.32294055  1.89890507  4.03838935  CHARGE =  1.0
  H   12    (CENTRE 12)  -5.98144764  1.88426366  4.00259801  CHARGE =  1.0
  H   13    (CENTRE 13)  -8.30587314  1.87407948 -0.06827549  CHARGE =  1.0
  H   14    (CENTRE 14)  -5.90876734  1.88095109 -4.09840190  CHARGE =  1.0
  H   15    (CENTRE 15)  -1.25359479  1.89561529 -4.05435578  CHARGE =  1.0
CENTRE ASSIGNMENTS    1  1  1  1  1  1  1  1  1  1  1  1  1  1  1  1  1  1  1  1
CENTRE ASSIGNMENTS    1  1  1  1  1  1  1  1  1  1  1  1  1  1  1  2  2  2  2  2
CENTRE ASSIGNMENTS    2  2  2  2  2  2  2  2  2  2  2  2  2  2  2  2  2  2  2  2
CENTRE ASSIGNMENTS    2  2  2  2  2  2  2  2  2  2  3  3  3  3  3  3  3  3  3  3
CENTRE ASSIGNMENTS    3  3  3  3  3  3  3  3  3  3  3  3  3  3  3  3  3  3  3  3
CENTRE ASSIGNMENTS    3  3  3  3  3  4  4  4  4  4  4  4  4  4  4  4  4  4  4  4
CENTRE ASSIGNMENTS    4  4  4  4  4  4  4  4  4  4  4  4  4  4  4  4  4  4  4  4
CENTRE ASSIGNMENTS    5  5  5  5  5  5  5  5  5  5  5  5  5  5  5  5  5  5  5  5
CENTRE ASSIGNMENTS    5  5  5  5  5  5  5  5  5  5  5  5  5  5  5  6  6  6  6  6
CENTRE ASSIGNMENTS    6  6  6  6  6  6  6  6  6  6  6  6  6  6  6  6  6  6  6  6
CENTRE ASSIGNMENTS    6  6  6  6  6  6  6  6  6  6  7  7  7  7  7  7  7  7  7  7
CENTRE ASSIGNMENTS    7  7  7  7  7  7  7  7  7  7  7  7  7  7  7  7  7  7  7  7
CENTRE ASSIGNMENTS    7  7  7  7  7  8  8  8  8  8  8  8  8  9  9  9  9  9  9  9
CENTRE ASSIGNMENTS    9 10 10 10 10 10 10 10 10 11 11 11 11 11 11 11 11 12 12 12
CENTRE ASSIGNMENTS   12 12 12 12 12 13 13 13 13 13 13 13 13 14 14 14 14 14 14 14
CENTRE ASSIGNMENTS   14 15 15 15 15 15 15 15 15
TYPE ASSIGNMENTS      1  1  1  1  1  1  1  1  1  1  1  2  2  2  2  3  3  3  3  4
TYPE ASSIGNMENTS      4  4  4  2  3  4  2  3  4  5  6  7  8  9 10  1  1  1  1  1
TYPE ASSIGNMENTS      1  1  1  1  1  1  2  2  2  2  3  3  3  3  4  4  4  4  2  3
TYPE ASSIGNMENTS      4  2  3  4  5  6  7  8  9 10  1  1  1  1  1  1  1  1  1  1
TYPE ASSIGNMENTS      1  2  2  2  2  3  3  3  3  4  4  4  4  2  3  4  2  3  4  5
TYPE ASSIGNMENTS      6  7  8  9 10  1  1  1  1  1  1  1  1  1  1  1  2  2  2  2
TYPE ASSIGNMENTS      3  3  3  3  4  4  4  4  2  3  4  2  3  4  5  6  7  8  9 10
TYPE ASSIGNMENTS      1  1  1  1  1  1  1  1  1  1  1  2  2  2  2  3  3  3  3  4
TYPE ASSIGNMENTS      4  4  4  2  3  4  2  3  4  5  6  7  8  9 10  1  1  1  1  1
TYPE ASSIGNMENTS      1  1  1  1  1  1  2  2  2  2  3  3  3  3  4  4  4  4  2  3
TYPE ASSIGNMENTS      4  2  3  4  5  6  7  8  9 10  1  1  1  1  1  1  1  1  1  1
TYPE ASSIGNMENTS      1  2  2  2  2  3  3  3  3  4  4  4  4  2  3  4  2  3  4  5
TYPE ASSIGNMENTS      6  7  8  9 10  1  1  1  1  1  2  3  4  1  1  1  1  1  2  3
TYPE ASSIGNMENTS      4  1  1  1  1  1  2  3  4  1  1  1  1  1  2  3  4  1  1  1
TYPE ASSIGNMENTS      1  1  2  3  4  1  1  1  1  1  2  3  4  1  1  1  1  1  2  3
TYPE ASSIGNMENTS      4  1  1  1  1  1  2  3  4
EXPONENTS  0.1357535D+05 0.2035233D+04 0.4632256D+03 0.1312002D+03 0.4285302D+02
EXPONENTS  0.1558419D+02 0.6206714D+01 0.2576490D+01 0.5769634D+00 0.2297283D+00
EXPONENTS  0.9516444D-01 0.3469723D+02 0.7958262D+01 0.2378083D+01 0.8143321D+00
EXPONENTS  0.3469723D+02 0.7958262D+01 0.2378083D+01 0.8143321D+00 0.3469723D+02
EXPONENTS  0.7958262D+01 0.2378083D+01 0.8143321D+00 0.2888755D+00 0.2888755D+00
EXPONENTS  0.2888755D+00 0.1005682D+00 0.1005682D+00 0.1005682D+00 0.8000000D+00
EXPONENTS  0.8000000D+00 0.8000000D+00 0.8000000D+00 0.8000000D+00 0.8000000D+00
EXPONENTS  0.1357535D+05 0.2035233D+04 0.4632256D+03 0.1312002D+03 0.4285302D+02
EXPONENTS  0.1558419D+02 0.6206714D+01 0.2576490D+01 0.5769634D+00 0.2297283D+00
EXPONENTS  0.9516444D-01 0.3469723D+02 0.7958262D+01 0.2378083D+01 0.8143321D+00
EXPONENTS  0.3469723D+02 0.7958262D+01 0.2378083D+01 0.8143321D+00 0.3469723D+02
EXPONENTS  0.7958262D+01 0.2378083D+01 0.8143321D+00 0.2888755D+00 0.2888755D+00
EXPONENTS  0.2888755D+00 0.1005682D+00 0.1005682D+00 0.1005682D+00 0.8000000D+00
EXPONENTS  0.8000000D+00 0.8000000D+00 0.8000000D+00 0.8000000D+00 0.8000000D+00
EXPONENTS  0.1357535D+05 0.2035233D+04 0.4632256D+03 0.1312002D+03 0.4285302D+02
EXPONENTS  0.1558419D+02 0.6206714D+01 0.2576490D+01 0.5769634D+00 0.2297283D+00
EXPONENTS  0.9516444D-01 0.3469723D+02 0.7958262D+01 0.2378083D+01 0.8143321D+00
EXPONENTS  0.3469723D+02 0.7958262D+01 0.2378083D+01 0.8143321D+00 0.3469723D+02
EXPONENTS  0.7958262D+01 0.2378083D+01 0.8143321D+00 0.2888755D+00 0.2888755D+00
EXPONENTS  0.2888755D+00 0.1005682D+00 0.1005682D+00 0.1005682D+00 0.8000000D+00
EXPONENTS  0.8000000D+00 0.8000000D+00 0.8000000D+00 0.8000000D+00 0.8000000D+00
EXPONENTS  0.1357535D+05 0.2035233D+04 0.4632256D+03 0.1312002D+03 0.4285302D+02
EXPONENTS  0.1558419D+02 0.6206714D+01 0.2576490D+01 0.5769634D+00 0.2297283D+00
EXPONENTS  0.9516444D-01 0.3469723D+02 0.7958262D+01 0.2378083D+01 0.8143321D+00
EXPONENTS  0.3469723D+02 0.7958262D+01 0.2378083D+01 0.8143321D+00 0.3469723D+02
EXPONENTS  0.7958262D+01 0.2378083D+01 0.8143321D+00 0.2888755D+00 0.2888755D+00
EXPONENTS  0.2888755D+00 0.1005682D+00 0.1005682D+00 0.1005682D+00 0.8000000D+00
EXPONENTS  0.8000000D+00 0.8000000D+00 0.8000000D+00 0.8000000D+00 0.8000000D+00
EXPONENTS  0.1357535D+05 0.2035233D+04 0.4632256D+03 0.1312002D+03 0.4285302D+02
EXPONENTS  0.1558419D+02 0.6206714D+01 0.2576490D+01 0.5769634D+00 0.2297283D+00
EXPONENTS  0.9516444D-01 0.3469723D+02 0.7958262D+01 0.2378083D+01 0.8143321D+00
EXPONENTS  0.3469723D+02 0.7958262D+01 0.2378083D+01 0.8143321D+00 0.3469723D+02
EXPONENTS  0.7958262D+01 0.2378083D+01 0.8143321D+00 0.2888755D+00 0.2888755D+00
EXPONENTS  0.2888755D+00 0.1005682D+00 0.1005682D+00 0.1005682D+00 0.8000000D+00
EXPONENTS  0.8000000D+00 0.8000000D+00 0.8000000D+00 0.8000000D+00 0.8000000D+00
EXPONENTS  0.1357535D+05 0.2035233D+04 0.4632256D+03 0.1312002D+03 0.4285302D+02
EXPONENTS  0.1558419D+02 0.6206714D+01 0.2576490D+01 0.5769634D+00 0.2297283D+00
EXPONENTS  0.9516444D-01 0.3469723D+02 0.7958262D+01 0.2378083D+01 0.8143321D+00
EXPONENTS  0.3469723D+02 0.7958262D+01 0.2378083D+01 0.8143321D+00 0.3469723D+02
EXPONENTS  0.7958262D+01 0.2378083D+01 0.8143321D+00 0.2888755D+00 0.2888755D+00
EXPONENTS  0.2888755D+00 0.1005682D+00 0.1005682D+00 0.1005682D+00 0.8000000D+00
EXPONENTS  0.8000000D+00 0.8000000D+00 0.8000000D+00 0.8000000D+00 0.8000000D+00
EXPONENTS  0.1357535D+05 0.2035233D+04 0.4632256D+03 0.1312002D+03 0.4285302D+02
EXPONENTS  0.1558419D+02 0.6206714D+01 0.2576490D+01 0.5769634D+00 0.2297283D+00
EXPONENTS  0.9516444D-01 0.3469723D+02 0.7958262D+01 0.2378083D+01 0.8143321D+00
EXPONENTS  0.3469723D+02 0.7958262D+01 0.2378083D+01 0.8143321D+00 0.3469723D+02
EXPONENTS  0.7958262D+01 0.2378083D+01 0.8143321D+00 0.2888755D+00 0.2888755D+00
EXPONENTS  0.2888755D+00 0.1005682D+00 0.1005682D+00 0.1005682D+00 0.8000000D+00
EXPONENTS  0.8000000D+00 0.8000000D+00 0.8000000D+00 0.8000000D+00 0.8000000D+00
EXPONENTS  0.3406134D+02 0.5123575D+01 0.1164663D+01 0.3272304D+00 0.1030724D+00
EXPONENTS  0.8000000D+00 0.8000000D+00 0.8000000D+00 0.3406134D+02 0.5123575D+01
EXPONENTS  0.1164663D+01 0.3272304D+00 0.1030724D+00 0.8000000D+00 0.8000000D+00
EXPONENTS  0.8000000D+00 0.3406134D+02 0.5123575D+01 0.1164663D+01 0.3272304D+00
EXPONENTS  0.1030724D+00 0.8000000D+00 0.8000000D+00 0.8000000D+00 0.3406134D+02
EXPONENTS  0.5123575D+01 0.1164663D+01 0.3272304D+00 0.1030724D+00 0.8000000D+00
EXPONENTS  0.8000000D+00 0.8000000D+00 0.3406134D+02 0.5123575D+01 0.1164663D+01
EXPONENTS  0.3272304D+00 0.1030724D+00 0.8000000D+00 0.8000000D+00 0.8000000D+00
EXPONENTS  0.3406134D+02 0.5123575D+01 0.1164663D+01 0.3272304D+00 0.1030724D+00
EXPONENTS  0.8000000D+00 0.8000000D+00 0.8000000D+00 0.3406134D+02 0.5123575D+01
EXPONENTS  0.1164663D+01 0.3272304D+00 0.1030724D+00 0.8000000D+00 0.8000000D+00
EXPONENTS  0.8000000D+00 0.3406134D+02 0.5123575D+01 0.1164663D+01 0.3272304D+00
EXPONENTS  0.1030724D+00 0.8000000D+00 0.8000000D+00 0.8000000D+00
MO    1     MO 0.0        OCC NO =    2.0000000  ORB. ENERGY =  -10.180907
  0.20705058D-02  0.38643392D-02  0.65954076D-02  0.10249922D-01  0.13729048D-01
  0.14102706D-01  0.93559085D-02  0.27724268D-02 -0.38015152D-03  0.14579055D-02
 -0.48336235D-03  0.63191985D-04  0.67448859D-04  0.59067551D-04  0.37300423D-04
 -0.14051048D-04 -0.14997585D-04 -0.13133960D-04 -0.82939320D-05 -0.67897602D-04
 -0.72471466D-04 -0.63466041D-04 -0.40078014D-04 -0.53822258D-03  0.15161936D-04
  0.75650617D-04  0.20971627D-03 -0.20220180D-04 -0.10406360D-03 -0.43845139D-03
  0.21197646D-03  0.22647492D-03  0.82336867D-05  0.16202124D-04  0.94398717D-06
  0.25356380D+00  0.47324500D+00  0.80770438D+00  0.12552533D+01  0.16813233D+01
  0.17270832D+01  0.11187148D+01  0.33150762D+00  0.18125243D-01 -0.78751863D-02
  0.76184764D-02  0.10935845D-03  0.11672529D-03  0.10222081D-03  0.64551171D-04
 -0.87144407D-05 -0.93014817D-05 -0.81456640D-05 -0.51438854D-05 -0.11314248D-04
 -0.12076422D-04 -0.10575786D-04 -0.66784771D-05 -0.30048105D-03  0.50837795D-05
 -0.11429023D-04 -0.12630329D-02 -0.99331155D-06 -0.25332121D-04 -0.14030245D-03
 -0.20376024D-03  0.34406268D-03  0.55954171D-05 -0.15119965D-04  0.44578828D-06
  0.56119926D-02  0.10474080D-01  0.17876491D-01  0.27781853D-01  0.37211834D-01
  0.38224613D-01  0.25216932D-01  0.74725076D-02 -0.15384211D-03  0.12870204D-02
 -0.54524114D-02 -0.66668406D-04 -0.71159467D-04 -0.62317073D-04 -0.39352455D-04
  0.12371399D-05  0.13204788D-05  0.11563939D-05  0.73024833D-06  0.62838515D-04
  0.67071578D-04  0.58737152D-04  0.37091780D-04  0.22401557D-03 -0.14732382D-05
  0.23153845D-04  0.58116441D-03  0.35175885D-05  0.86441010D-03  0.16070371D-03
  0.17473072D-03 -0.33543442D-03  0.23539286D-05  0.13220641D-02  0.66846808D-05
  0.58678077D-05  0.10951526D-04  0.18691367D-04  0.29048251D-04  0.38908085D-04
  0.39967031D-04  0.17383399D-03  0.51512049D-04 -0.17442653D-03  0.20233828D-05
  0.32401963D-02 -0.17665509D-03 -0.18855531D-03 -0.16512511D-03 -0.10427445D-03
 -0.13362392D-05 -0.14262538D-05 -0.12490251D-05 -0.78874380D-06  0.15842304D-03
  0.16909507D-03  0.14808303D-03  0.93512591D-04  0.47437014D-04  0.11899763D-05
 -0.14400773D-03  0.60041503D-03  0.31634675D-06 -0.38657278D-03 -0.62627132D-04
 -0.17519842D-04  0.80146974D-04  0.59437344D-06  0.21159485D-03  0.10769497D-05
 -0.17019592D-03 -0.31764932D-03 -0.54214360D-03 -0.84254531D-03 -0.11285300D-02
 -0.11592448D-02 -0.60213757D-03 -0.17843081D-03 -0.20463230D-03  0.17957947D-03
 -0.18963361D-02 -0.13804309D-03 -0.14734224D-03 -0.12903325D-03 -0.81482891D-04
 -0.79548632D-07 -0.84907358D-07 -0.74356628D-07 -0.46955285D-07  0.46253438D-05
  0.49369262D-05  0.43234555D-05  0.27302083D-05 -0.63153108D-05 -0.44037895D-06
 -0.60769798D-05 -0.58234074D-03 -0.73731513D-06  0.34439868D-04 -0.24571182D-04
  0.33775293D-04 -0.92041112D-05 -0.10470625D-05 -0.86429572D-06 -0.11373414D-06
  0.59389246D-05  0.11084257D-04  0.18917903D-04  0.29400312D-04  0.39379645D-04
  0.40451425D-04  0.17537100D-03  0.51967507D-04 -0.18070489D-03  0.23339579D-04
  0.29387489D-02 -0.16588236D-03 -0.17705688D-03 -0.15505550D-03 -0.97915617D-04
 -0.15649894D-05 -0.16704136D-05 -0.14628452D-05 -0.92376854D-06 -0.17115353D-03
 -0.18268314D-03 -0.15998262D-03 -0.10102704D-03  0.36035123D-04  0.14275892D-05
  0.14801010D-03  0.45009439D-03 -0.70396418D-07  0.37907305D-03 -0.60049652D-04
 -0.16913111D-04  0.76962763D-04  0.34986646D-06 -0.20748254D-03 -0.82613611D-06
  0.54874412D-02  0.10241620D-01  0.17479744D-01  0.27165268D-01  0.36385962D-01
  0.37376264D-01  0.24636601D-01  0.73005387D-02 -0.99525437D-04  0.11860985D-02
 -0.51141357D-02 -0.46876809D-04 -0.50034625D-04 -0.43817239D-04 -0.27670041D-04
  0.14986010D-05  0.15995530D-05  0.14007899D-05  0.88458135D-06 -0.48704333D-04
 -0.51985259D-04 -0.45525484D-04 -0.28748776D-04  0.21138021D-03 -0.18461654D-05
 -0.28547293D-04  0.41371123D-03  0.26911648D-05 -0.81674293D-03  0.18186573D-03
  0.18154662D-03 -0.36341235D-03  0.17999931D-05 -0.13045431D-02 -0.72714185D-05
 -0.34389113D-04 -0.62065320D-04 -0.91629163D-04 -0.15580303D-03  0.84234203D-04
  0.14063771D-03  0.17663351D-04  0.20668439D-03 -0.29336434D-04 -0.52946267D-04
 -0.78166392D-04 -0.14462458D-03 -0.12882833D-03  0.17151222D-03  0.15199914D-03
 -0.10284220D-03 -0.28919956D-04 -0.52194609D-04 -0.77056694D-04 -0.14235818D-03
 -0.16652645D-03  0.18693451D-03 -0.16131245D-03 -0.75533496D-04 -0.31628704D-04
 -0.57083346D-04 -0.84274104D-04 -0.34723909D-03 -0.56942402D-04  0.31695767D-04
  0.13744441D-05  0.39615579D-03 -0.16243636D-05 -0.29316443D-05 -0.43280871D-05
  0.89129452D-04  0.83220714D-04  0.42304381D-05  0.40792396D-06 -0.13432062D-03
  0.76845040D-05  0.13868959D-04  0.20475221D-04 -0.68715205D-04 -0.18877043D-03
  0.38849597D-04 -0.15587469D-06 -0.29290066D-05 -0.74646520D-07 -0.13472171D-06
 -0.19889429D-06  0.75438033D-04  0.45571761D-04  0.13526936D-04  0.81120408D-06
  0.12039307D-03 -0.31553948D-04 -0.56948427D-04 -0.84074918D-04 -0.30926242D-03
 -0.53451547D-05  0.45876313D-04  0.17555307D-05 -0.38276455D-03
MO    2     MO 0.0        OCC NO =    2.0000000  ORB. ENERGY =  -10.171293
  0.49384752D-06  0.92170440D-06  0.15731063D-05  0.24447643D-05  0.32745895D-05
  0.33637127D-05 -0.10881539D-04 -0.32245154D-05  0.12145709D-04 -0.12556368D-03
  0.78601943D-03  0.66874471D-04  0.71379413D-04  0.62509687D-04  0.39474089D-04
 -0.22834330D-05 -0.24372545D-05 -0.21343972D-05 -0.13478452D-05 -0.68023500D-04
 -0.72605846D-04 -0.63583722D-04 -0.40152328D-04 -0.12540843D-04 -0.22911718D-05
  0.62818951D-04 -0.14403082D-03 -0.65554280D-05  0.13481914D-04  0.13289166D-04
  0.52914936D-05 -0.18580659D-04 -0.24018808D-05 -0.18336970D-04 -0.29037239D-05
 -0.60739865D-03 -0.11336333D-02 -0.19348131D-02 -0.30068928D-02 -0.40275209D-02
 -0.41371364D-02 -0.24810386D-02 -0.73520361D-03 -0.20045056D-03 -0.64350950D-04
  0.13417027D-02  0.21645162D-03  0.23103270D-03  0.20232419D-03  0.12776521D-03
 -0.19549213D-05 -0.20866129D-05 -0.18273269D-05 -0.11539342D-05 -0.55217761D-04
 -0.58937459D-04 -0.51613792D-04 -0.32593467D-04  0.69381938D-04  0.30115666D-05
  0.24273145D-03 -0.47336389D-03 -0.30346062D-06 -0.82319341D-03 -0.19947208D-04
  0.71672816D-04 -0.51725609D-04  0.44378731D-05 -0.37589150D-03 -0.63795410D-06
  0.87852658D-03  0.16396596D-02  0.27984664D-02  0.43490963D-02  0.58253079D-02
  0.59838531D-02  0.41159385D-02  0.12196718D-02 -0.24448089D-03  0.25643849D-03
  0.12970614D-03  0.56072306D-04  0.59849569D-04  0.52412562D-04  0.33097880D-04
  0.24194649D-05  0.25824501D-05  0.22615505D-05  0.14281410D-05  0.21230275D-03
  0.22660434D-03  0.19844611D-03  0.12531625D-03  0.11990574D-04 -0.25236507D-05
 -0.12018219D-03  0.31543891D-03  0.26016335D-05  0.10620188D-03 -0.89367372D-04
  0.50730373D-04  0.38637000D-04  0.27182061D-06 -0.29417714D-04  0.11716947D-05
  0.18026719D-01  0.33644609D-01  0.57422472D-01  0.89240258D-01  0.11953103D+00
  0.12278426D+00  0.79758706D-01  0.23634815D-01  0.99229526D-03 -0.29347734D-03
  0.14753602D-02 -0.66988423D-04 -0.71501041D-04 -0.62616202D-04 -0.39541352D-04
 -0.84253349D-06 -0.89929005D-06 -0.78754276D-06 -0.49732345D-06  0.21667067D-03
  0.23126651D-03  0.20252894D-03  0.12789451D-03  0.11602473D-03  0.14764571D-05
  0.99536109D-04 -0.12471111D-03 -0.19775387D-05 -0.17600706D-03  0.17984689D-03
 -0.28137467D-04 -0.15170943D-03  0.14522044D-05 -0.28459222D-03 -0.54682827D-06
  0.32762973D-01  0.61147977D-01  0.10436347D+00  0.16219125D+00  0.21724375D+00
  0.22315639D+00  0.14500637D+00  0.42969589D-01  0.17926930D-02  0.53103103D-03
 -0.31876988D-02 -0.76928989D-04 -0.82111245D-04 -0.71907964D-04 -0.45408984D-04
  0.20698743D-06  0.22093096D-06  0.19347771D-06  0.12217876D-06 -0.33951771D-04
 -0.36238903D-04 -0.31735797D-04 -0.20040760D-04  0.12946325D-03  0.13617561D-06
 -0.33036248D-04 -0.47170023D-03 -0.52542186D-06  0.23392345D-04  0.35276663D-03
  0.13569286D-03 -0.48845949D-03  0.68039653D-06  0.99659486D-03  0.27432742D-05
  0.24944098D+00  0.46555029D+00  0.79457153D+00  0.12348435D+01  0.16539859D+01
  0.16990018D+01  0.11006389D+01  0.32615121D+00  0.17392059D-01 -0.66290805D-02
  0.43116176D-02  0.12992814D-03  0.13868064D-03  0.12144795D-03  0.76692867D-04
  0.48040815D-06  0.51277044D-06  0.44905272D-06  0.28357120D-06  0.22417974D-03
  0.23928141D-03  0.20954791D-03  0.13232689D-03 -0.31826016D-03 -0.41076855D-07
 -0.62326424D-03  0.26785286D-03 -0.35312978D-06  0.95625155D-03  0.10594793D-03
 -0.57099260D-03  0.46504468D-03  0.35569168D-05  0.68047958D-03  0.81995109D-06
  0.26967090D-01  0.50330689D-01  0.85901210D-01  0.13349906D+00  0.17881258D+00
  0.18367925D+00  0.11940920D+00  0.35384406D-01  0.14039959D-02  0.64631544D-03
 -0.36862536D-02  0.50764538D-04  0.54184248D-04  0.47451222D-04  0.29964856D-04
  0.12368775D-05  0.13201987D-05  0.11561486D-05  0.73009344D-06 -0.10510499D-03
 -0.11218530D-03 -0.98244963D-04 -0.62040471D-04 -0.59238744D-04 -0.17449990D-05
  0.16745984D-03 -0.16701099D-03  0.69063713D-06 -0.75681719D-03 -0.74349388D-03
  0.12634700D-03  0.61714688D-03 -0.43687710D-05 -0.11194181D-03 -0.21251446D-05
 -0.59161809D-06 -0.10677497D-05 -0.15763556D-05 -0.24689932D-04 -0.41906403D-04
 -0.37001280D-04  0.57842208D-05  0.37830064D-04  0.23154503D-04  0.41789146D-04
  0.61694751D-04 -0.14935817D-03 -0.56849059D-04  0.62560888D-04  0.19830914D-05
  0.72664340D-05  0.23166295D-04  0.41810428D-04  0.61726170D-04 -0.15284697D-03
 -0.71850409D-04  0.68529375D-04 -0.97602187D-05  0.10113724D-04 -0.27948351D-05
 -0.50441062D-05 -0.74467872D-05  0.12301794D-04 -0.17077420D-03 -0.36309693D-04
  0.44063354D-06 -0.84362447D-04 -0.55161396D-05 -0.99555046D-05 -0.14697653D-04
 -0.38955215D-04 -0.13400291D-03 -0.46429164D-06  0.12316306D-05  0.75705212D-04
 -0.47879150D-04 -0.86412080D-04 -0.12757312D-03 -0.69657291D-04  0.44904458D-04
 -0.33201520D-03 -0.11696959D-05  0.10194144D-03 -0.10531884D-03 -0.19007897D-03
 -0.28062012D-03  0.22679970D-03  0.34614179D-04 -0.68778131D-03 -0.69534012D-06
 -0.12747344D-02 -0.41804393D-04 -0.75448386D-04 -0.11138704D-03 -0.42520138D-04
  0.37537803D-05  0.25631784D-03  0.14969449D-05 -0.16297524D-03
MO    3     MO 0.0        OCC NO =    2.0000000  ORB. ENERGY =  -10.170933
  0.16589423D-04  0.30962076D-04  0.52844097D-04  0.82125006D-04  0.11000066D-03
  0.11299450D-03  0.74597753D-04  0.22105476D-04 -0.10608820D-04  0.10116030D-03
 -0.45613101D-03 -0.44666033D-04 -0.47674923D-04 -0.41750757D-04 -0.26365083D-04
  0.30537777D-05  0.32594929D-05  0.28544628D-05  0.18025577D-05 -0.39720471D-04
 -0.42396206D-04 -0.37127983D-04 -0.23445859D-04  0.81080554D-05  0.88449845D-06
  0.63391739D-04  0.98244932D-04  0.77197486D-05  0.10176222D-03 -0.25253001D-04
  0.21838388D-04  0.34146130D-05  0.22784563D-05 -0.56850439D-05 -0.56339972D-05
  0.60482144D-03  0.11288233D-02  0.19266036D-02  0.29941345D-02  0.40104320D-02
  0.41195824D-02  0.24869679D-02  0.73696065D-03  0.18987050D-03  0.45291101D-04
 -0.13873061D-02 -0.17918287D-03 -0.19125337D-03 -0.16748791D-03 -0.10576653D-03
  0.63464596D-06  0.67739835D-06  0.59322370D-06  0.37461338D-06 -0.47981555D-04
 -0.51213792D-04 -0.44849880D-04 -0.28322141D-04 -0.77289230D-04 -0.13221980D-05
  0.25936021D-03  0.40009975D-03 -0.19580671D-05 -0.87928686D-03  0.16055563D-04
 -0.64291339D-04  0.48235777D-04 -0.40671365D-05 -0.47287527D-03 -0.40547761D-06
 -0.31158918D-01 -0.58154210D-01 -0.99253896D-01 -0.15425047D+00 -0.20660763D+00
 -0.21223079D+00 -0.13788246D+00 -0.40858567D-01 -0.17016869D-02 -0.55992897D-03
  0.38879901D-02 -0.30568731D-04 -0.32627968D-04 -0.28573562D-04 -0.18043849D-04
 -0.43401226D-06 -0.46324912D-06 -0.40568501D-06 -0.25618503D-06 -0.77247284D-04
 -0.82450982D-04 -0.72205485D-04 -0.45596865D-04  0.65348083D-04  0.85823253D-06
  0.14856809D-03  0.10706874D-03 -0.14538270D-06 -0.76403844D-03  0.72975283D-03
 -0.94891522D-04 -0.63486131D-03  0.46310652D-05 -0.77325310D-04 -0.30507001D-05
 -0.24847004D+00 -0.46373813D+00 -0.79147867D+00 -0.12300369D+01 -0.16475477D+01
 -0.16923884D+01 -0.10963484D+01 -0.32487979D+00 -0.17346283D-01  0.65922072D-02
 -0.42439186D-02 -0.14155234D-03 -0.15108789D-03 -0.13231346D-03 -0.83554300D-04
 -0.66856284D-06 -0.71360001D-06 -0.62492688D-06 -0.39463354D-06  0.25561163D-03
  0.27283069D-03  0.23892829D-03  0.15088024D-03  0.35428386D-03  0.10977083D-06
 -0.58924804D-03 -0.40664474D-03 -0.14618036D-06  0.93475945D-03 -0.67698223D-04
  0.56314031D-03 -0.49544209D-03 -0.26910063D-05  0.65712446D-03 -0.12001465D-05
 -0.33694669D-01 -0.62886870D-01 -0.10733130D+00 -0.16680356D+00 -0.22342161D+00
 -0.22950239D+00 -0.14905441D+00 -0.44169140D-01 -0.19324771D-02 -0.27530545D-03
  0.26767111D-02  0.64747138D-04  0.69108774D-04  0.60521202D-04  0.38218386D-04
 -0.73005918D-07 -0.77923900D-07 -0.68240946D-07 -0.43093307D-07 -0.36744319D-04
 -0.39219569D-04 -0.34346080D-04 -0.21689122D-04 -0.88463490D-04 -0.27386452D-06
 -0.23115403D-04  0.39700767D-03  0.87010208D-06 -0.33293739D-04 -0.33106848D-03
 -0.10455938D-03  0.43562786D-03  0.34470970D-07  0.11524168D-02  0.44060837D-05
  0.22095616D-01  0.41238694D-01  0.70383572D-01  0.10938310D+00  0.14651095D+00
  0.15049849D+00  0.97264416D-01  0.28822264D-01  0.18224047D-02 -0.80587417D-03
 -0.65155746D-03  0.88647203D-04  0.94618847D-04  0.82861350D-04  0.52325911D-04
  0.10120240D-05  0.10801982D-05  0.94597095D-06  0.59736888D-06  0.26275617D-03
  0.28045651D-03  0.24560652D-03  0.15509746D-03 -0.17558106D-03 -0.13077538D-05
 -0.93772143D-05  0.26085725D-03  0.17040406D-05 -0.56412910D-04 -0.16459246D-03
 -0.68615838D-04  0.23320830D-03 -0.11174127D-05 -0.21703575D-03 -0.13796684D-06
  0.39680444D-02  0.74058567D-02  0.12639844D-01  0.19643580D-01  0.26311191D-01
  0.27027292D-01  0.17340292D-01  0.51384310D-02  0.49067321D-03 -0.13336039D-03
 -0.76814744D-03 -0.68275978D-04 -0.72875331D-04 -0.63819721D-04 -0.40301359D-04
 -0.19701482D-05 -0.21028656D-05 -0.18415600D-05 -0.11629222D-05  0.21159838D-03
  0.22585253D-03  0.19778772D-03  0.12490048D-03 -0.16310713D-04  0.19653403D-05
 -0.12024319D-03 -0.22789301D-03 -0.14618975D-05  0.36956307D-04 -0.24554387D-04
 -0.34004460D-04  0.58558847D-04 -0.10563246D-05 -0.61196339D-04  0.73679673D-06
 -0.11496081D-04 -0.20748077D-04 -0.30631099D-04  0.61866225D-04 -0.68374583D-04
 -0.27329958D-04  0.43893432D-05  0.41372651D-04 -0.27868697D-05 -0.50297303D-05
 -0.74255634D-05  0.23719662D-04  0.61051519D-04  0.12565495D-04 -0.17091326D-04
  0.11321674D-04 -0.54857705D-05 -0.99006946D-05 -0.14616735D-04  0.38793397D-04
  0.68854526D-04 -0.38835148D-05  0.13449288D-04  0.13417836D-04  0.42600689D-04
  0.76885538D-04  0.11350876D-03  0.64749922D-04  0.15022421D-04 -0.26787947D-03
 -0.16834046D-05 -0.20611216D-03  0.10801641D-03  0.19494754D-03  0.28780775D-03
 -0.24440356D-03 -0.90425767D-04  0.72027698D-03  0.26637872D-06 -0.12548281D-02
  0.42912657D-04  0.77448575D-04  0.11433999D-03  0.52841177D-04 -0.34077600D-04
  0.30845211D-03  0.92946437D-06  0.12861822D-03 -0.10582665D-04 -0.19099547D-04
 -0.28197317D-04  0.73805552D-04  0.13424174D-03 -0.12118115D-03 -0.11941240D-05
 -0.12323219D-03 -0.46349436D-05 -0.83651259D-05 -0.12349722D-04 -0.42875836D-04
  0.19376463D-03  0.84836954D-04 -0.80482070D-06 -0.12780095D-03
MO    4     MO 0.0        OCC NO =    2.0000000  ORB. ENERGY =  -10.168965
  0.24863573D-03  0.46404738D-03  0.79200647D-03  0.12308572D-02  0.16486464D-02
  0.16935170D-02  0.10688212D-02  0.31672269D-03  0.32577180D-04 -0.14129968D-04
  0.56899399D-04 -0.30492990D-04 -0.32547124D-04 -0.28502764D-04 -0.17999140D-04
 -0.44974563D-05 -0.48004237D-05 -0.42039150D-05 -0.26547200D-05 -0.12925003D-04
 -0.13795685D-04 -0.12081410D-04 -0.76292602D-05 -0.19719985D-04  0.47920738D-05
  0.13099603D-04 -0.40738507D-04 -0.10882191D-04 -0.57787770D-04  0.37306886D-04
 -0.45376540D-05 -0.32769232D-04  0.19677121D-05  0.16591730D-05 -0.15668163D-05
  0.16478058D-02  0.30754227D-02  0.52489354D-02  0.81573700D-02  0.10926222D-01
  0.11223597D-01  0.72599154D-02  0.21513233D-02  0.10559517D-03 -0.22371564D-03
  0.35271519D-04  0.99397302D-04  0.10609312D-03  0.92909809D-04  0.58671387D-04
  0.21833656D-06  0.23304462D-06  0.20408610D-06  0.12887783D-06 -0.31024184D-06
 -0.33114102D-06 -0.28999288D-06 -0.18312689D-06 -0.10608706D-05 -0.14399449D-06
 -0.16472854D-06  0.62961791D-04  0.40734031D-05  0.27540198D-04 -0.59828660D-04
 -0.17174120D-04  0.77002779D-04  0.25758755D-05 -0.46103267D-04 -0.29138079D-06
 -0.38542694D-01 -0.71935100D-01 -0.12277424D+00 -0.19080344D+00 -0.25556775D+00
 -0.26252344D+00 -0.17000022D+00 -0.50375990D-01 -0.27340378D-02  0.74630971D-03
  0.14789357D-02  0.13323814D-03  0.14221362D-03  0.12454192D-03  0.78646670D-04
  0.11566341D-05  0.12345497D-05  0.10811425D-05  0.68272804D-06  0.14447440D-03
  0.15420680D-03  0.13504480D-03  0.85279111D-04  0.14142403D-03 -0.23030564D-06
 -0.15554088D-03 -0.41662300D-03 -0.21291177D-05  0.81096967D-04 -0.67555217D-04
  0.73847800D-04 -0.62925829D-05 -0.60907202D-06 -0.30417800D-03 -0.30988762D-07
 -0.31372780D-01 -0.58553355D-01 -0.99935131D-01 -0.15530918D+00 -0.20802569D+00
 -0.21368745D+00 -0.13810584D+00 -0.40924760D-01 -0.25518945D-02  0.20138249D-02
 -0.43185369D-02 -0.76516094D-04 -0.81670536D-04 -0.71522018D-04 -0.45165264D-04
 -0.48449394D-06 -0.51713147D-06 -0.45287185D-06 -0.28598293D-06  0.38492563D-04
  0.41085582D-04  0.35980218D-04  0.22721060D-04  0.97265257D-04  0.51689513D-06
 -0.23637919D-03 -0.45319145D-03 -0.99813472D-06  0.56079315D-03  0.26185317D-03
  0.23996492D-03 -0.50181809D-03 -0.43270250D-06 -0.10546424D-02 -0.35860207D-05
  0.24567840D+00  0.45852790D+00  0.78258617D+00  0.12162171D+01  0.16290371D+01
  0.16733739D+01  0.10838074D+01  0.32116354D+00  0.17373615D-01 -0.70780594D-02
  0.57880600D-02  0.37926235D-03  0.40481104D-03  0.35450854D-03  0.22386773D-03
  0.27372379D-05  0.29216296D-05  0.25585830D-05  0.16157133D-05  0.24436724D-05
  0.26082883D-05  0.22841780D-05  0.14424300D-05 -0.75778900D-03 -0.23858966D-05
  0.35420290D-05  0.12455914D-02  0.38263722D-05 -0.23745144D-06  0.54949458D-03
 -0.66477123D-03  0.11527666D-03  0.59526743D-05  0.54429241D-04  0.81339567D-06
 -0.26841008D-01 -0.50095372D-01 -0.85499585D-01 -0.13287490D+00 -0.17797656D+00
 -0.18282048D+00 -0.11810849D+00 -0.34998968D-01 -0.22392668D-02  0.19411507D-02
 -0.44691014D-02 -0.65452767D-04 -0.69861937D-04 -0.61180776D-04 -0.38634898D-04
 -0.66955811D-06 -0.71466233D-06 -0.62585719D-06 -0.39522102D-06 -0.25604537D-04
 -0.27329365D-04 -0.23933372D-04 -0.15113626D-04  0.75954571D-04  0.89931301D-06
  0.23685375D-03 -0.45805938D-03 -0.18219366D-05 -0.58697711D-03  0.21142163D-03
  0.22890674D-03 -0.44032836D-03  0.25126304D-06  0.10847841D-02  0.23817303D-05
 -0.28523109D-01 -0.53234803D-01 -0.90857765D-01 -0.14120204D+00 -0.18913018D+00
 -0.19427767D+00 -0.12579813D+00 -0.37277632D-01 -0.20325606D-02  0.50481501D-03
  0.17043218D-02  0.12128726D-03  0.12945768D-03  0.11337105D-03  0.71592406D-04
  0.15101922D-05  0.16119250D-05  0.14116245D-05  0.89142328D-06 -0.11961027D-03
 -0.12766771D-03 -0.11180351D-03 -0.70602523D-04  0.16101043D-03 -0.62189179D-06
  0.13102287D-03 -0.47163020D-03 -0.18370467D-05 -0.34303114D-04 -0.81307538D-04
  0.50561935D-04  0.30745603D-04  0.51482668D-07  0.28351925D-03 -0.65156847D-07
  0.18155017D-05  0.32766096D-05  0.48373712D-05 -0.92956073D-05  0.10103316D-03
 -0.20988372D-04 -0.18014157D-05  0.13886151D-04  0.41175551D-05  0.74313454D-05
  0.10971150D-04 -0.39362206D-04 -0.80165754D-05  0.41106205D-05  0.36052850D-05
 -0.51051773D-05  0.44851569D-05  0.80947916D-05  0.11950619D-04 -0.40918779D-04
 -0.26129219D-04  0.99743333D-05 -0.22788635D-05  0.12394224D-05  0.18197400D-04
  0.32842588D-04  0.48486641D-04 -0.14571011D-04 -0.10031352D-03 -0.11260686D-03
  0.11412656D-06 -0.26464182D-03 -0.15470736D-04 -0.27921516D-04 -0.41221493D-04
 -0.12038108D-03  0.32226181D-04  0.13472744D-03  0.54570970D-06  0.31321840D-04
 -0.90499725D-04 -0.16333351D-03 -0.24113486D-03  0.27925748D-03  0.70217850D-04
 -0.13796047D-02 -0.35443080D-05 -0.10337000D-04 -0.18711426D-04 -0.33770301D-04
 -0.49856254D-04 -0.12414486D-03  0.28497115D-04  0.11589444D-03  0.65420888D-06
 -0.64170011D-04  0.13336772D-04  0.24070148D-04  0.35535586D-04 -0.37213807D-05
 -0.64908252D-04 -0.78127521D-04  0.71285425D-06  0.20669579D-03
MO    5     MO 0.0        OCC NO =    2.0000000  ORB. ENERGY =  -10.168684
 -0.77254985D-03 -0.14418673D-02 -0.24608872D-02 -0.38244645D-02 -0.51226006D-02
 -0.52620204D-02 -0.32995414D-02 -0.97774972D-03 -0.15375161D-03  0.68707921D-04
 -0.39708493D-03  0.49999151D-04  0.53367302D-04  0.46735792D-04  0.29513070D-04
 -0.18831839D-05 -0.20100430D-05 -0.17602717D-05 -0.11115897D-05 -0.25267345D-04
 -0.26969458D-04 -0.23618188D-04 -0.14914592D-04 -0.11241692D-05  0.44607411D-05
  0.28189593D-06 -0.35326363D-06  0.15887194D-06 -0.90780230D-04  0.17509101D-04
 -0.10421034D-03  0.86701241D-04  0.21761642D-05  0.17899762D-03  0.28815032D-04
 -0.33252132D-02 -0.62060931D-02 -0.10592164D-01 -0.16461281D-01 -0.22048725D-01
 -0.22648817D-01 -0.14394974D-01 -0.42656477D-02 -0.54739327D-03  0.91501154D-03
 -0.23969837D-02  0.13720603D-04  0.14644879D-04  0.12825082D-04  0.80988797D-05