[Molden Format]
[Title]
 Molden file created by orca_2mkl for BaseName=./MXL

[Atoms] AU
C    1   6          1.9079366795         1.8913412376         0.0142068816 
C    2   6         -0.9436967006         1.8799129235         0.0119991613 
C    3   6         -2.3105649986         1.8886392987         2.2689430583 
C    4   6         -4.9383890944         1.8962256115         2.2354073198 
C    5   6         -6.2358253893         1.8948185545        -0.0500905364 
C    6   6         -4.9189581720         1.8853587436        -2.3365083121 
C    7   6         -6.2970952128         1.9013830535        -4.8327992256 
C    8   6         -2.2813253017         1.8751065930        -2.2624514095 
H    9   1          2.6564691853         1.6680660932         1.9220219708 
H   10   1          2.6492641454         3.6642283937        -0.7477384541 
H   11   1          2.6676174984         0.3621981806        -1.1480215196 
H   12   1         -1.3131287366         1.8854595479         4.0589473112 
H   13   1         -5.9801397633         1.8979646194         3.9989328182 
H   14   1         -8.2849519354         1.8964444135        -0.0602708032 
H   15   1         -8.3311941552         1.6973918717        -4.5668781962 
H   16   1         -5.6597080029         0.3626602511        -6.0545763207 
H   17   1         -5.9722413220         3.6681556099        -5.8556522244 
H   18   1         -1.2369135952         1.8601866500        -4.0300848311 
[GTO]
  1 0
s   6 1.0 
    13575.3496820000         0.5435951735
     2035.2333680000         1.0145521571
      463.2256235900         1.7315729053
      131.2001959800         2.6910372890
       42.8530158900         3.6044547339
       15.5841857700         3.7025557541
s   2 1.0 
        6.2067138500         1.8383540665
        2.5764896500         0.5447575690
s   1 1.0 
        0.5769633900         0.4718145012
s   1 1.0 
        0.2297283100         0.2364944648
s   1 1.0 
        0.0951644400         0.1221141848
p   4 1.0 
       34.6972322400         1.3596662229
        7.9582622800         1.4512589862
        2.3780826900         1.2709231150
        0.8143320800         0.8025721212
p   1 1.0 
        0.2888754700         0.3018758836
p   1 1.0 
        0.1005682400         0.0807265050
d   1 1.0 
        0.8000000000         1.9292013661

  2 0
s   6 1.0 
    13575.3496820000         0.5435951735
     2035.2333680000         1.0145521571
      463.2256235900         1.7315729053
      131.2001959800         2.6910372890
       42.8530158900         3.6044547339
       15.5841857700         3.7025557541
s   2 1.0 
        6.2067138500         1.8383540665
        2.5764896500         0.5447575690
s   1 1.0 
        0.5769633900         0.4718145012
s   1 1.0 
        0.2297283100         0.2364944648
s   1 1.0 
        0.0951644400         0.1221141848
p   4 1.0 
       34.6972322400         1.3596662229
        7.9582622800         1.4512589862
        2.3780826900         1.2709231150
        0.8143320800         0.8025721212
p   1 1.0 
        0.2888754700         0.3018758836
p   1 1.0 
        0.1005682400         0.0807265050
d   1 1.0 
        0.8000000000         1.9292013661

  3 0
s   6 1.0 
    13575.3496820000         0.5435951735
     2035.2333680000         1.0145521571
      463.2256235900         1.7315729053
      131.2001959800         2.6910372890
       42.8530158900         3.6044547339
       15.5841857700         3.7025557541
s   2 1.0 
        6.2067138500         1.8383540665
        2.5764896500         0.5447575690
s   1 1.0 
        0.5769633900         0.4718145012
s   1 1.0 
        0.2297283100         0.2364944648
s   1 1.0 
        0.0951644400         0.1221141848
p   4 1.0 
       34.6972322400         1.3596662229
        7.9582622800         1.4512589862
        2.3780826900         1.2709231150
        0.8143320800         0.8025721212
p   1 1.0 
        0.2888754700         0.3018758836
p   1 1.0 
        0.1005682400         0.0807265050
d   1 1.0 
        0.8000000000         1.9292013661

  4 0
s   6 1.0 
    13575.3496820000         0.5435951735
     2035.2333680000         1.0145521571
      463.2256235900         1.7315729053
      131.2001959800         2.6910372890
       42.8530158900         3.6044547339
       15.5841857700         3.7025557541
s   2 1.0 
        6.2067138500         1.8383540665
        2.5764896500         0.5447575690
s   1 1.0 
        0.5769633900         0.4718145012
s   1 1.0 
        0.2297283100         0.2364944648
s   1 1.0 
        0.0951644400         0.1221141848
p   4 1.0 
       34.6972322400         1.3596662229
        7.9582622800         1.4512589862
        2.3780826900         1.2709231150
        0.8143320800         0.8025721212
p   1 1.0 
        0.2888754700         0.3018758836
p   1 1.0 
        0.1005682400         0.0807265050
d   1 1.0 
        0.8000000000         1.9292013661

  5 0
s   6 1.0 
    13575.3496820000         0.5435951735
     2035.2333680000         1.0145521571
      463.2256235900         1.7315729053
      131.2001959800         2.6910372890
       42.8530158900         3.6044547339
       15.5841857700         3.7025557541
s   2 1.0 
        6.2067138500         1.8383540665
        2.5764896500         0.5447575690
s   1 1.0 
        0.5769633900         0.4718145012
s   1 1.0 
        0.2297283100         0.2364944648
s   1 1.0 
        0.0951644400         0.1221141848
p   4 1.0 
       34.6972322400         1.3596662229
        7.9582622800         1.4512589862
        2.3780826900         1.2709231150
        0.8143320800         0.8025721212
p   1 1.0 
        0.2888754700         0.3018758836
p   1 1.0 
        0.1005682400         0.0807265050
d   1 1.0 
        0.8000000000         1.9292013661

  6 0
s   6 1.0 
    13575.3496820000         0.5435951735
     2035.2333680000         1.0145521571
      463.2256235900         1.7315729053
      131.2001959800         2.6910372890
       42.8530158900         3.6044547339
       15.5841857700         3.7025557541
s   2 1.0 
        6.2067138500         1.8383540665
        2.5764896500         0.5447575690
s   1 1.0 
        0.5769633900         0.4718145012
s   1 1.0 
        0.2297283100         0.2364944648
s   1 1.0 
        0.0951644400         0.1221141848
p   4 1.0 
       34.6972322400         1.3596662229
        7.9582622800         1.4512589862
        2.3780826900         1.2709231150
        0.8143320800         0.8025721212
p   1 1.0 
        0.2888754700         0.3018758836
p   1 1.0 
        0.1005682400         0.0807265050
d   1 1.0 
        0.8000000000         1.9292013661

  7 0
s   6 1.0 
    13575.3496820000         0.5435951735
     2035.2333680000         1.0145521571
      463.2256235900         1.7315729053
      131.2001959800         2.6910372890
       42.8530158900         3.6044547339
       15.5841857700         3.7025557541
s   2 1.0 
        6.2067138500         1.8383540665
        2.5764896500         0.5447575690
s   1 1.0 
        0.5769633900         0.4718145012
s   1 1.0 
        0.2297283100         0.2364944648
s   1 1.0 
        0.0951644400         0.1221141848
p   4 1.0 
       34.6972322400         1.3596662229
        7.9582622800         1.4512589862
        2.3780826900         1.2709231150
        0.8143320800         0.8025721212
p   1 1.0 
        0.2888754700         0.3018758836
p   1 1.0 
        0.1005682400         0.0807265050
d   1 1.0 
        0.8000000000         1.9292013661

  8 0
s   6 1.0 
    13575.3496820000         0.5435951735
     2035.2333680000         1.0145521571
      463.2256235900         1.7315729053
      131.2001959800         2.6910372890
       42.8530158900         3.6044547339
       15.5841857700         3.7025557541
s   2 1.0 
        6.2067138500         1.8383540665
        2.5764896500         0.5447575690
s   1 1.0 
        0.5769633900         0.4718145012
s   1 1.0 
        0.2297283100         0.2364944648
s   1 1.0 
        0.0951644400         0.1221141848
p   4 1.0 
       34.6972322400         1.3596662229
        7.9582622800         1.4512589862
        2.3780826900         1.2709231150
        0.8143320800         0.8025721212
p   1 1.0 
        0.2888754700         0.3018758836
p   1 1.0 
        0.1005682400         0.0807265050
d   1 1.0 
        0.8000000000         1.9292013661

  9 0
s   3 1.0 
       34.0613410000         0.2556300129
        5.1235746000         0.4613599287
        1.1646626000         0.6811215012
s   1 1.0 
        0.3272304100         0.3083545312
s   1 1.0 
        0.1030724100         0.1296483265
p   1 1.0 
        0.8000000000         1.0784563492

 10 0
s   3 1.0 
       34.0613410000         0.2556300129
        5.1235746000         0.4613599287
        1.1646626000         0.6811215012
s   1 1.0 
        0.3272304100         0.3083545312
s   1 1.0 
        0.1030724100         0.1296483265
p   1 1.0 
        0.8000000000         1.0784563492

 11 0
s   3 1.0 
       34.0613410000         0.2556300129
        5.1235746000         0.4613599287
        1.1646626000         0.6811215012
s   1 1.0 
        0.3272304100         0.3083545312
s   1 1.0 
        0.1030724100         0.1296483265
p   1 1.0 
        0.8000000000         1.0784563492

 12 0
s   3 1.0 
       34.0613410000         0.2556300129
        5.1235746000         0.4613599287
        1.1646626000         0.6811215012
s   1 1.0 
        0.3272304100         0.3083545312
s   1 1.0 
        0.1030724100         0.1296483265
p   1 1.0 
        0.8000000000         1.0784563492

 13 0
s   3 1.0 
       34.0613410000         0.2556300129
        5.1235746000         0.4613599287
        1.1646626000         0.6811215012
s   1 1.0 
        0.3272304100         0.3083545312
s   1 1.0 
        0.1030724100         0.1296483265
p   1 1.0 
        0.8000000000         1.0784563492

 14 0
s   3 1.0 
       34.0613410000         0.2556300129
        5.1235746000         0.4613599287
        1.1646626000         0.6811215012
s   1 1.0 
        0.3272304100         0.3083545312
s   1 1.0 
        0.1030724100         0.1296483265
p   1 1.0 
        0.8000000000         1.0784563492

 15 0
s   3 1.0 
       34.0613410000         0.2556300129
        5.1235746000         0.4613599287
        1.1646626000         0.6811215012
s   1 1.0 
        0.3272304100         0.3083545312
s   1 1.0 
        0.1030724100         0.1296483265
p   1 1.0 
        0.8000000000         1.0784563492

 16 0
s   3 1.0 
       34.0613410000         0.2556300129
        5.1235746000         0.4613599287
        1.1646626000         0.6811215012
s   1 1.0 
        0.3272304100         0.3083545312
s   1 1.0 
        0.1030724100         0.1296483265
p   1 1.0 
        0.8000000000         1.0784563492

 17 0
s   3 1.0 
       34.0613410000         0.2556300129
        5.1235746000         0.4613599287
        1.1646626000         0.6811215012
s   1 1.0 
        0.3272304100         0.3083545312
s   1 1.0 
        0.1030724100         0.1296483265
p   1 1.0 
        0.8000000000         1.0784563492

 18 0
s   3 1.0 
       34.0613410000         0.2556300129
        5.1235746000         0.4613599287
        1.1646626000         0.6811215012
s   1 1.0 
        0.3272304100         0.3083545312
s   1 1.0 
        0.1030724100         0.1296483265
p   1 1.0 
        0.8000000000         1.0784563492

[5D]
[7F]
[9G]
[MO]
 Sym=     1a
 Ene= -1.01781005039153E+01
 Spin= Alpha
 Occup= 2.000000
  1       0.000986540745
  2       0.001320949980
  3      -0.000164276047
  4       0.001530258870
  5      -0.006055298404
  6      -0.000015409672
  7       0.000003087124
  8       0.000038374073
  9      -0.000302778127
 10      -0.000040347917
 11      -0.000183626339
 12       0.002024156084
 13       0.000025357041
 14      -0.000481622493
 15       0.000068776184
 16       0.000012355012
 17       0.000002447909
 18      -0.000109053520
 19      -0.000004850266
 20       0.114547676835
 21       0.149367813620
 22       0.009717010757
 23      -0.008016887776
 24      -0.007656443628
 25      -0.000131460029
 26      -0.000000866203
 27       0.000013075990
 28      -0.000029199165
 29       0.000010178183
 30      -0.000501998248
 31       0.005808721473
 32      -0.000003332442
 33       0.009132238019
 34       0.000050054945
 35       0.000115453077
 36      -0.000000251858
 37       0.000021395491
 38       0.000003082389
 39       0.002446666016
 40       0.003164036853
 41       0.000372367739
 42       0.000580495322
 43      -0.000218908714
 44      -0.000026878902
 45       0.000001398184
 46      -0.000085263666
 47       0.000005611198
 48      -0.000007743640
 49       0.000056258521
 50      -0.003958213503
 51       0.000038550257
 52      -0.002118942921
 53      -0.000073244995
 54       0.000168818381
 55      -0.000000445898
 56       0.000030519113
 57       0.000000399520
 58       0.000028589330
 59      -0.000024375706
 60       0.000331468566
 61      -0.000319866179
 62      -0.017678827693
 63       0.000006906019
 64      -0.000001268551
 65      -0.000139655243
 66      -0.000368757018
 67       0.000006702654
 68       0.000203969794
 69       0.000356795725
 70      -0.000016917212
 71       0.005638519453
 72       0.000120847371
 73       0.000034635096
 74      -0.000000101549
 75      -0.000093742997
 76       0.000000613521
 77      -0.008635797785
 78      -0.011479214380
 79       0.000268819514
 80      -0.005072268505
 81       0.039167552632
 82      -0.000006822280
 83       0.000000609773
 84      -0.000043341664
 85       0.000363241660
 86      -0.000005268379
 87       0.000534530407
 88       0.009748070998
 89      -0.000011506205
 90      -0.001086469917
 91       0.000437350444
 92      -0.000563484163
 93       0.000003828638
 94      -0.000078872957
 95      -0.000003799047
 96      -0.452280577477
 97      -0.590014696294
 98      -0.037396062031
 99       0.032506024152
100      -0.053530282040
101       0.000018572583
102      -0.000008011731
103       0.000040552863
104      -0.000577790657
105       0.000023599520
106      -0.000665633616
107      -0.001837555804
108      -0.000020484537
109      -0.012071133528
110       0.000040224543
111       0.000191791558
112      -0.000002498569
113      -0.000227677788
114       0.000001145918
115      -0.003940060489
116      -0.005260545560
117       0.000774422281
118      -0.006130949611
119       0.007098052730
120      -0.000007058489
121      -0.000012698873
122       0.000035186308
123      -0.000699917613
124       0.000077866381
125      -0.001514211223
126       0.000724307730
127      -0.000279477025
128       0.003426964297
129       0.000261717719
130       0.000280566175
131      -0.000008296050
132       0.000067906041
133      -0.000003410063
134      -0.006098981783
135      -0.008120166321
136       0.000246616798
137      -0.003853811222
138       0.033190414558
139      -0.000071122341
140       0.000001775786
141      -0.000021187073
142       0.000316835105
143      -0.000010318328
144       0.000416432325
145       0.000059033649
146       0.000069689925
147       0.009763476831
148      -0.000629270225
149      -0.000075388090
150      -0.000004162903
151       0.000493918387
152      -0.000002805992
153      -0.000017388673
154      -0.000093434728
155       0.000364317701
156       0.000053867231
157       0.000001803109
158       0.000012032471
159      -0.000090930977
160       0.000228175428
161       0.000058039495
162      -0.000006405019
163       0.000038156016
164      -0.000017040537
165      -0.000091677355
166       0.000187732722
167       0.000073565569
168       0.000000886765
169      -0.000046852991
170      -0.000031263874
171      -0.000040805364
172      -0.000073478275
173       0.001713357578
174       0.000024851496
175       0.000000122454
176       0.000122179356
177      -0.000002866401
178      -0.000130633187
179      -0.000143977565
180      -0.000086063301
181       0.000001280729
182       0.000028843217
183       0.000120324844
184       0.000997594069
185      -0.000328688886
186       0.000328806255
187      -0.000000534560
188      -0.000142576284
189       0.000124069802
190       0.000468917948
191      -0.000666816605
192       0.000214610640
193       0.000018298717
194       0.000033029899
195       0.000144918752
196       0.000285816230
197       0.000605675595
198      -0.000021026644
199       0.000136389863
200       0.000174093284
201       0.000144312957
202       0.000259180361
203       0.000929288809
204       0.000011721056
205      -0.000143547638
206       0.000168081713
207       0.000084714406
208       0.000674961412
209      -0.000135593526
210      -0.000279826024
211       0.000002968687
212       0.000097908971
 Sym=     1a
 Ene= -1.01780987918621E+01
 Spin= Alpha
 Occup= 2.000000
  1      -0.003947506354
  2      -0.005268086676
  3       0.000788996254
  4      -0.006132641419
  5       0.004780975829
  6      -0.000039292113
  7      -0.000013710669
  8       0.000046755551
  9       0.001726993640
 10       0.000069530121
 11      -0.000231413666
 12      -0.002713493252
 13      -0.000321963099
 14       0.000889024316
 15      -0.000189992348
 16      -0.000008180968
 17       0.000000117349
 18       0.000320881325
 19       0.000006715962
 20      -0.452241252224
 21      -0.589997784225
 22      -0.037258047144
 23       0.032614059094
 24      -0.064900010869
 25      -0.000120968080
 26      -0.000009647231
 27       0.000010760938
 28       0.000961319444
 29       0.000030124238
 30      -0.000060867275
 31       0.016138756264
 32      -0.000037253518
 33       0.000135391274
 34      -0.000311611863
 35       0.000035828648
 36      -0.000001733216
 37      -0.000025333489
 38       0.000003686564
 39      -0.008489886929
 40      -0.011332985272
 41       0.000506443380
 42      -0.005449041275
 43       0.044323601814
 44       0.000032403682
 45       0.000001469713
 46      -0.000063127191
 47      -0.000728420500
 48      -0.000009067892
 49      -0.000037031515
 50      -0.006379569814
 51       0.000033699955
 52      -0.011420387313
 53       0.000294815482
 54      -0.000652630987
 55       0.000006268322
 56       0.000020892790
 57      -0.000000360704
 58       0.000046659778
 59      -0.000042570713
 60       0.000556196790
 61      -0.000538637991
 62      -0.029574191472
 63       0.000138998199
 64      -0.000002299590
 65      -0.000158995360
 66      -0.000200114376
 67       0.000010582783
 68       0.000588493912
 69      -0.005590041211
 70      -0.000018128928
 71       0.005760683803
 72      -0.000054942810
 73      -0.000105798211
 74      -0.000000179802
 75      -0.000008570020
 76       0.000000159464
 77      -0.001887480882
 78      -0.002609302591
 79       0.000568794655
 80      -0.002082076831
 81       0.020851910375
 82       0.000095966704
 83       0.000001685892
 84      -0.000043488383
 85       0.000136058035
 86      -0.000011442160
 87       0.000314378139
 88       0.009519065397
 89       0.000024672681
 90       0.002201497203
 91       0.000131483941
 92      -0.000126534866
 93       0.000001118326
 94       0.000004665833
 95      -0.000002206025
 96      -0.114392041532
 97      -0.149300192749
 98      -0.009178283345
 99       0.008464201989
100      -0.037574075853
101       0.000069003774
102      -0.000005533702
103       0.000159805610
104       0.000203916556
105       0.000023053674
106      -0.000605117055
107      -0.013268726967
108       0.000010834984
109      -0.007267539629
110      -0.000066598729
111       0.000142553934
112      -0.000004348916
113      -0.000014897557
114      -0.000001181861
115      -0.001009938003
116      -0.001344015116
117       0.000231427958
118      -0.001573194118
119      -0.003043009955
120      -0.000033608002
121      -0.000003531046
122       0.000055350615
123      -0.000028855527
124      -0.000001769522
125      -0.000617455659
126      -0.000238105886
127      -0.000119100843
128      -0.000426770222
129       0.000037219580
130       0.000049649377
131       0.000001778303
132       0.000017697776
133      -0.000001364569
134      -0.010236728380
135      -0.013628977292
136       0.000412181599
137      -0.006459991797
138       0.055597976680
139       0.000021583116
140       0.000002719575
141       0.000048135675
142      -0.000415601856
143      -0.000015876726
144       0.000135768273
145      -0.009721229734
146       0.000128483666
147       0.010547268733
148       0.000203546705
149       0.000674341414
150      -0.000004143845
151       0.000101994683
152       0.000003991358
153       0.000131594004
154       0.000482293810
155      -0.000553912965
156      -0.000121455857
157       0.000023905999
158      -0.000188791478
159       0.000114765518
160       0.000416456039
161       0.001101867176
162      -0.000177566389
163      -0.000142219932
164       0.000069789123
165       0.000115138728
166       0.000427334366
167       0.000715260815
168      -0.000160562293
169       0.000129239139
170       0.000100898687
171       0.000114736838
172       0.001092612154
173       0.000543126156
174      -0.000024607111
175       0.000000114994
176      -0.000339457017
177      -0.000004951776
178      -0.000217618005
179      -0.000233290497
180      -0.000028037721
181       0.000001862793
182       0.000117030761
183       0.000018865838
184       0.000454032513
185       0.001761927597
186       0.000042120934
187       0.000000083473
188      -0.000034968443
189       0.000047429433
190       0.000148011009
191       0.000054628505
192       0.000074935926
193       0.000011978572
194      -0.000029324582
195      -0.000026115565
196       0.000370353231
197       0.000410631279
198       0.000018733658
199       0.000020447408
200       0.000076622443
201      -0.000025575973
202       0.000398640097
203       0.000567630958
204       0.000027096889
205      -0.000033676508
206       0.000087488925
207       0.000142248162
208       0.001129687180
209      -0.000229161042
210      -0.000094997257
211       0.000004540637
212       0.000384630182
 Sym=     1a
 Ene= -1.01678076608783E+01
 Spin= Alpha
 Occup= 2.000000
  1       0.000095939120
  2       0.000112976675
  3       0.000122856361
  4      -0.000791984808
  5       0.002687995719
  6       0.000020015706
  7       0.000003392939
  8       0.000033470090
  9       0.000082206749
 10       0.000006933458
 11      -0.000225283220
 12      -0.000850050345
 13       0.000130609803
 14      -0.001374333210
 15      -0.000005539185
 16      -0.000006392009
 17      -0.000002945612
 18       0.000011843431
 19       0.000001763119
 20      -0.000590384059
 21      -0.000671550191
 22      -0.000444155207
 23       0.000113567542
 24       0.008500364232
 25       0.000147629875
 26       0.000003050848
 27       0.000033114899
 28       0.000229006127
 29      -0.000019913829
 30      -0.000913679718
 31      -0.001909437244
 32       0.000041134361
 33       0.010296783561
 34      -0.000013241390
 35       0.000210049318
 36       0.000000460108
 37      -0.000028805653
 38      -0.000002578860
 39       0.033643877696
 40       0.044117875151
 41       0.001694691791
 42       0.003977968299
 43      -0.033243609155
 44       0.000025310570
 45      -0.000000254240
 46       0.000075526345
 47      -0.000380010634
 48       0.000002292363
 49      -0.000649642560
 50      -0.000187092213
 51       0.000002383846
 52       0.008444447045
 53       0.000532583660
 54       0.000031597340
 55      -0.000000838140
 56      -0.000454548339
 57       0.000002135045
 58       0.464225606003
 59       0.605656625019
 60       0.037581745401
 61      -0.029654131736
 62       0.038702128369
 63       0.000109969907
 64      -0.000001776947
 65      -0.000186430960
 66      -0.001298074229
 67       0.000003483972
 68       0.002196987237
 69       0.007142406840
 70      -0.000022000501
 71      -0.012101099862
 72       0.000413587734
 73      -0.000320154227
 74       0.000000671517
 75       0.000363262703
 76      -0.000001241128
 77       0.033692368054
 78       0.044180982176
 79       0.001699588932
 80       0.003973209189
 81      -0.033237125557
 82      -0.000078698165
 83      -0.000000064837
 84       0.000014604864
 85       0.000754114353
 86       0.000000166211
 87       0.000017912105
 88      -0.007309310425
 89       0.000014621756
 90       0.004227359096
 91      -0.000405214356
 92      -0.000565341119
 93      -0.000000068033
 94       0.000086785975
 95      -0.000000020489
 96      -0.000590766749
 97      -0.000671979370
 98      -0.000444400039
 99       0.000114024080
100       0.008511269267
101      -0.000100137718
102       0.000003525824
103      -0.000113320877
104       0.000689361072
105      -0.000021316828
106      -0.000642229585
107      -0.008081498395
108       0.000058579698
109       0.006633013947
110      -0.000171147656
111       0.000109891902
112       0.000002320321
113       0.000062230159
114       0.000000296540
115       0.000096770268
116       0.000114000505
117       0.000123539156
118      -0.000794542020
119       0.002689583352
120      -0.000038801468
121       0.000003297155
122      -0.000001456482
123       0.000156751008
124       0.000006513929
125      -0.000180673688
126       0.001618744084
127       0.000115929428
128       0.000078320254
129       0.000013482295
130       0.000005458920
131      -0.000002938919
132       0.000001044287
133       0.000001593824
134      -0.001057900343
135      -0.001271060800
136      -0.000592026534
137       0.000524318291
138       0.012965265537
139       0.000074066990
140      -0.000005269322
141      -0.000125434029
142      -0.000190471641
143       0.000025904766
144       0.000322323520
145       0.000141265019
146      -0.000063090765
147      -0.000215634557
148      -0.000025471916
149      -0.000002368660
150       0.000001336418
151      -0.000046676017
152      -0.000000702373
153       0.000054894868
154      -0.000205327723
155       0.000501120712
156       0.000035023981
157       0.000007504989
158      -0.000043824665
159       0.000037337449
160      -0.000217814933
161      -0.000575194297
162       0.000015207971
163       0.000022222310
164      -0.000005952202
165       0.000021115055
166      -0.000146122422
167      -0.000499186160
168      -0.000010734308
169      -0.000027123671
170      -0.000011292478
171      -0.000149435933
172      -0.000178814764
173       0.000315475045
174       0.000204597139
175      -0.000000520796
176       0.000130829352
177      -0.000419181827
178       0.000880458344
179       0.000800528002
180      -0.000685048660
181       0.000001060241
182       0.001159820034
183      -0.000149115798
184      -0.000178285410
185       0.000311536766
186      -0.000213010849
187       0.000000188803
188      -0.000116051067
189       0.000054779255
190      -0.000204818523
191       0.000503640086
192       0.000021553476
193       0.000007124482
194      -0.000051901412
195       0.000021711339
196      -0.000148448663
197      -0.000504689799
198       0.000014439607
199      -0.000026964680
200       0.000003477605
201       0.000036912752
202      -0.000215702028
203      -0.000573964846
204      -0.000001751231
205       0.000022430185
206      -0.000015635131
207      -0.000032692881
208       0.000318331813
209      -0.001550907174
210      -0.000062646159
211      -0.000000981550
212       0.000105891148
 Sym=     1a
 Ene= -1.01646067643464E+01
 Spin= Alpha
 Occup= 2.000000
  1       0.465051112542
  2       0.606370243646
  3       0.039147250779
  4      -0.034636331985
  5       0.027888812762
  6      -0.000264370396
  7       0.000016478466
  8      -0.000068511324
  9       0.003320301360
 10       0.000008474952
 11       0.000141588262
 12       0.000791218937
 13       0.000262929153
 14      -0.000964021334
 15       0.000294254388
 16      -0.000018219537
 17      -0.000000564835
 18      -0.000509240805
 19      -0.000003887084
 20      -0.003977757698
 21      -0.005064348261
 22      -0.001479191552
 23       0.007478915187
 24      -0.069061421191
 25       0.000159261224
 26       0.000014999770
 27      -0.000033626573
 28       0.001202006151
 29      -0.000060941404
 30       0.000099848551
 31       0.033814306610
 32       0.000184463921
 33      -0.002661904632
 34       0.000219948830
 35       0.000014586817
 36       0.000000797535
 37      -0.000030300937
 38      -0.000004204255
 39      -0.005858439266
 40      -0.007582735494
 41      -0.000620640441
 42      -0.000400693997
 43       0.054970782811
 44      -0.000113594105
 45      -0.000004114405
 46       0.000069938039
 47      -0.000313101024
 48       0.000028958690
 49      -0.000126726285
 50      -0.012534764955
 51      -0.000236659090
 52      -0.023554201169
 53       0.000012756259
 54       0.000110523507
 55       0.000001389314
 56      -0.000048223732
 57      -0.000003878985
 58       0.000286334153
 59       0.000355862526
 60       0.000127920101
 61      -0.000435025684
 62      -0.045261296802
 63       0.000041891440
 64       0.000001931980
 65       0.000001000095
 66      -0.000494657253
 67      -0.000011199941
 68       0.000013670826
 69      -0.007514111398
 70       0.000203181717
 71       0.014453322665
 72       0.000021049874
 73       0.000030400739
 74       0.000000761480
 75       0.000036825881
 76      -0.000000054258
 77       0.000391172155
 78       0.000499861701
 79       0.000276774072
 80      -0.001467490011
 81       0.037183595113
 82       0.000009639601
 83      -0.000000412396
 84       0.000007242059
 85      -0.000035725087
 86       0.000006092799
 87      -0.000004986505
 88       0.015548169189
 89      -0.000186780893
 90       0.002995689765
 91      -0.000031746408
 92       0.000000895654
 93       0.000000371362
 94      -0.000019109404
 95       0.000000737217
 96      -0.000336212981