 Generated by Multiwfn
GAUSSIAN             29 MOL ORBITALS    360 PRIMITIVES       18 NUCLEI
  C    1    (CENTRE  1)   1.92173513  1.89753305 -0.02181760  CHARGE =  6.0
  C    2    (CENTRE  2)  -0.98227821  1.88440930 -0.00526817  CHARGE =  6.0
  C    3    (CENTRE  3)  -2.08778112  1.88721939  2.62914689  CHARGE =  6.0
  C    4    (CENTRE  4)  -2.62405503  4.15343869  3.87419845  CHARGE =  6.0
  C    5    (CENTRE  5)  -3.58498084  4.16275783  6.32194049  CHARGE =  6.0
  C    6    (CENTRE  6)  -4.02938665  1.89386033  7.57503234  CHARGE =  6.0
  C    7    (CENTRE  7)  -3.50623701 -0.37868806  6.35879899  CHARGE =  6.0
  C    8    (CENTRE  8)  -2.54534393 -0.37586299  3.91128780  CHARGE =  6.0
  H    9    (CENTRE  9)   2.64757029  1.89617435 -1.95505641  CHARGE =  1.0
  H   10    (CENTRE 10)   2.67525832  0.23735095  0.94602397  CHARGE =  1.0
  H   11    (CENTRE 11)   2.65938500  3.56947504  0.93804275  CHARGE =  1.0
  H   12    (CENTRE 12)  -1.66079647  0.22237508 -1.02981031  CHARGE =  1.0
  H   13    (CENTRE 13)  -1.67562309  3.53454851 -1.03879135  CHARGE =  1.0
  H   14    (CENTRE 14)  -2.29543440  5.93318007  2.91036312  CHARGE =  1.0
  H   15    (CENTRE 15)  -3.99541675  5.94305725  7.24759421  CHARGE =  1.0
  H   16    (CENTRE 16)  -4.78273151  1.89618476  9.47872264  CHARGE =  1.0
  H   17    (CENTRE 17)  -3.85537710 -2.15676986  7.31339880  CHARGE =  1.0
  H   18    (CENTRE 18)  -2.15507680 -2.15871711  2.97652547  CHARGE =  1.0
CENTRE ASSIGNMENTS    1  1  1  1  1  1  1  1  1  1  1  1  1  1  1  1  1  1  1  1
CENTRE ASSIGNMENTS    1  1  1  1  1  1  1  1  1  1  1  1  1  1  1  2  2  2  2  2
CENTRE ASSIGNMENTS    2  2  2  2  2  2  2  2  2  2  2  2  2  2  2  2  2  2  2  2
CENTRE ASSIGNMENTS    2  2  2  2  2  2  2  2  2  2  3  3  3  3  3  3  3  3  3  3
CENTRE ASSIGNMENTS    3  3  3  3  3  3  3  3  3  3  3  3  3  3  3  3  3  3  3  3
CENTRE ASSIGNMENTS    3  3  3  3  3  4  4  4  4  4  4  4  4  4  4  4  4  4  4  4
CENTRE ASSIGNMENTS    4  4  4  4  4  4  4  4  4  4  4  4  4  4  4  4  4  4  4  4
CENTRE ASSIGNMENTS    5  5  5  5  5  5  5  5  5  5  5  5  5  5  5  5  5  5  5  5
CENTRE ASSIGNMENTS    5  5  5  5  5  5  5  5  5  5  5  5  5  5  5  6  6  6  6  6
CENTRE ASSIGNMENTS    6  6  6  6  6  6  6  6  6  6  6  6  6  6  6  6  6  6  6  6
CENTRE ASSIGNMENTS    6  6  6  6  6  6  6  6  6  6  7  7  7  7  7  7  7  7  7  7
CENTRE ASSIGNMENTS    7  7  7  7  7  7  7  7  7  7  7  7  7  7  7  7  7  7  7  7
CENTRE ASSIGNMENTS    7  7  7  7  7  8  8  8  8  8  8  8  8  8  8  8  8  8  8  8
CENTRE ASSIGNMENTS    8  8  8  8  8  8  8  8  8  8  8  8  8  8  8  8  8  8  8  8
CENTRE ASSIGNMENTS    9  9  9  9  9  9  9  9 10 10 10 10 10 10 10 10 11 11 11 11
CENTRE ASSIGNMENTS   11 11 11 11 12 12 12 12 12 12 12 12 13 13 13 13 13 13 13 13
CENTRE ASSIGNMENTS   14 14 14 14 14 14 14 14 15 15 15 15 15 15 15 15 16 16 16 16
CENTRE ASSIGNMENTS   16 16 16 16 17 17 17 17 17 17 17 17 18 18 18 18 18 18 18 18
TYPE ASSIGNMENTS      1  1  1  1  1  1  1  1  1  1  1  2  2  2  2  3  3  3  3  4
TYPE ASSIGNMENTS      4  4  4  2  3  4  2  3  4  5  6  7  8  9 10  1  1  1  1  1
TYPE ASSIGNMENTS      1  1  1  1  1  1  2  2  2  2  3  3  3  3  4  4  4  4  2  3
TYPE ASSIGNMENTS      4  2  3  4  5  6  7  8  9 10  1  1  1  1  1  1  1  1  1  1
TYPE ASSIGNMENTS      1  2  2  2  2  3  3  3  3  4  4  4  4  2  3  4  2  3  4  5
TYPE ASSIGNMENTS      6  7  8  9 10  1  1  1  1  1  1  1  1  1  1  1  2  2  2  2
TYPE ASSIGNMENTS      3  3  3  3  4  4  4  4  2  3  4  2  3  4  5  6  7  8  9 10
TYPE ASSIGNMENTS      1  1  1  1  1  1  1  1  1  1  1  2  2  2  2  3  3  3  3  4
TYPE ASSIGNMENTS      4  4  4  2  3  4  2  3  4  5  6  7  8  9 10  1  1  1  1  1
TYPE ASSIGNMENTS      1  1  1  1  1  1  2  2  2  2  3  3  3  3  4  4  4  4  2  3
TYPE ASSIGNMENTS      4  2  3  4  5  6  7  8  9 10  1  1  1  1  1  1  1  1  1  1
TYPE ASSIGNMENTS      1  2  2  2  2  3  3  3  3  4  4  4  4  2  3  4  2  3  4  5
TYPE ASSIGNMENTS      6  7  8  9 10  1  1  1  1  1  1  1  1  1  1  1  2  2  2  2
TYPE ASSIGNMENTS      3  3  3  3  4  4  4  4  2  3  4  2  3  4  5  6  7  8  9 10
TYPE ASSIGNMENTS      1  1  1  1  1  2  3  4  1  1  1  1  1  2  3  4  1  1  1  1
TYPE ASSIGNMENTS      1  2  3  4  1  1  1  1  1  2  3  4  1  1  1  1  1  2  3  4
TYPE ASSIGNMENTS      1  1  1  1  1  2  3  4  1  1  1  1  1  2  3  4  1  1  1  1
TYPE ASSIGNMENTS      1  2  3  4  1  1  1  1  1  2  3  4  1  1  1  1  1  2  3  4
EXPONENTS  0.1357535D+05 0.2035233D+04 0.4632256D+03 0.1312002D+03 0.4285302D+02
EXPONENTS  0.1558419D+02 0.6206714D+01 0.2576490D+01 0.5769634D+00 0.2297283D+00
EXPONENTS  0.9516444D-01 0.3469723D+02 0.7958262D+01 0.2378083D+01 0.8143321D+00
EXPONENTS  0.3469723D+02 0.7958262D+01 0.2378083D+01 0.8143321D+00 0.3469723D+02
EXPONENTS  0.7958262D+01 0.2378083D+01 0.8143321D+00 0.2888755D+00 0.2888755D+00
EXPONENTS  0.2888755D+00 0.1005682D+00 0.1005682D+00 0.1005682D+00 0.8000000D+00
EXPONENTS  0.8000000D+00 0.8000000D+00 0.8000000D+00 0.8000000D+00 0.8000000D+00
EXPONENTS  0.1357535D+05 0.2035233D+04 0.4632256D+03 0.1312002D+03 0.4285302D+02
EXPONENTS  0.1558419D+02 0.6206714D+01 0.2576490D+01 0.5769634D+00 0.2297283D+00
EXPONENTS  0.9516444D-01 0.3469723D+02 0.7958262D+01 0.2378083D+01 0.8143321D+00
EXPONENTS  0.3469723D+02 0.7958262D+01 0.2378083D+01 0.8143321D+00 0.3469723D+02
EXPONENTS  0.7958262D+01 0.2378083D+01 0.8143321D+00 0.2888755D+00 0.2888755D+00
EXPONENTS  0.2888755D+00 0.1005682D+00 0.1005682D+00 0.1005682D+00 0.8000000D+00
EXPONENTS  0.8000000D+00 0.8000000D+00 0.8000000D+00 0.8000000D+00 0.8000000D+00
EXPONENTS  0.1357535D+05 0.2035233D+04 0.4632256D+03 0.1312002D+03 0.4285302D+02
EXPONENTS  0.1558419D+02 0.6206714D+01 0.2576490D+01 0.5769634D+00 0.2297283D+00
EXPONENTS  0.9516444D-01 0.3469723D+02 0.7958262D+01 0.2378083D+01 0.8143321D+00
EXPONENTS  0.3469723D+02 0.7958262D+01 0.2378083D+01 0.8143321D+00 0.3469723D+02
EXPONENTS  0.7958262D+01 0.2378083D+01 0.8143321D+00 0.2888755D+00 0.2888755D+00
EXPONENTS  0.2888755D+00 0.1005682D+00 0.1005682D+00 0.1005682D+00 0.8000000D+00
EXPONENTS  0.8000000D+00 0.8000000D+00 0.8000000D+00 0.8000000D+00 0.8000000D+00
EXPONENTS  0.1357535D+05 0.2035233D+04 0.4632256D+03 0.1312002D+03 0.4285302D+02
EXPONENTS  0.1558419D+02 0.6206714D+01 0.2576490D+01 0.5769634D+00 0.2297283D+00
EXPONENTS  0.9516444D-01 0.3469723D+02 0.7958262D+01 0.2378083D+01 0.8143321D+00
EXPONENTS  0.3469723D+02 0.7958262D+01 0.2378083D+01 0.8143321D+00 0.3469723D+02
EXPONENTS  0.7958262D+01 0.2378083D+01 0.8143321D+00 0.2888755D+00 0.2888755D+00
EXPONENTS  0.2888755D+00 0.1005682D+00 0.1005682D+00 0.1005682D+00 0.8000000D+00
EXPONENTS  0.8000000D+00 0.8000000D+00 0.8000000D+00 0.8000000D+00 0.8000000D+00
EXPONENTS  0.1357535D+05 0.2035233D+04 0.4632256D+03 0.1312002D+03 0.4285302D+02
EXPONENTS  0.1558419D+02 0.6206714D+01 0.2576490D+01 0.5769634D+00 0.2297283D+00
EXPONENTS  0.9516444D-01 0.3469723D+02 0.7958262D+01 0.2378083D+01 0.8143321D+00
EXPONENTS  0.3469723D+02 0.7958262D+01 0.2378083D+01 0.8143321D+00 0.3469723D+02
EXPONENTS  0.7958262D+01 0.2378083D+01 0.8143321D+00 0.2888755D+00 0.2888755D+00
EXPONENTS  0.2888755D+00 0.1005682D+00 0.1005682D+00 0.1005682D+00 0.8000000D+00
EXPONENTS  0.8000000D+00 0.8000000D+00 0.8000000D+00 0.8000000D+00 0.8000000D+00
EXPONENTS  0.1357535D+05 0.2035233D+04 0.4632256D+03 0.1312002D+03 0.4285302D+02
EXPONENTS  0.1558419D+02 0.6206714D+01 0.2576490D+01 0.5769634D+00 0.2297283D+00
EXPONENTS  0.9516444D-01 0.3469723D+02 0.7958262D+01 0.2378083D+01 0.8143321D+00
EXPONENTS  0.3469723D+02 0.7958262D+01 0.2378083D+01 0.8143321D+00 0.3469723D+02
EXPONENTS  0.7958262D+01 0.2378083D+01 0.8143321D+00 0.2888755D+00 0.2888755D+00
EXPONENTS  0.2888755D+00 0.1005682D+00 0.1005682D+00 0.1005682D+00 0.8000000D+00
EXPONENTS  0.8000000D+00 0.8000000D+00 0.8000000D+00 0.8000000D+00 0.8000000D+00
EXPONENTS  0.1357535D+05 0.2035233D+04 0.4632256D+03 0.1312002D+03 0.4285302D+02
EXPONENTS  0.1558419D+02 0.6206714D+01 0.2576490D+01 0.5769634D+00 0.2297283D+00
EXPONENTS  0.9516444D-01 0.3469723D+02 0.7958262D+01 0.2378083D+01 0.8143321D+00
EXPONENTS  0.3469723D+02 0.7958262D+01 0.2378083D+01 0.8143321D+00 0.3469723D+02
EXPONENTS  0.7958262D+01 0.2378083D+01 0.8143321D+00 0.2888755D+00 0.2888755D+00
EXPONENTS  0.2888755D+00 0.1005682D+00 0.1005682D+00 0.1005682D+00 0.8000000D+00
EXPONENTS  0.8000000D+00 0.8000000D+00 0.8000000D+00 0.8000000D+00 0.8000000D+00
EXPONENTS  0.1357535D+05 0.2035233D+04 0.4632256D+03 0.1312002D+03 0.4285302D+02
EXPONENTS  0.1558419D+02 0.6206714D+01 0.2576490D+01 0.5769634D+00 0.2297283D+00
EXPONENTS  0.9516444D-01 0.3469723D+02 0.7958262D+01 0.2378083D+01 0.8143321D+00
EXPONENTS  0.3469723D+02 0.7958262D+01 0.2378083D+01 0.8143321D+00 0.3469723D+02
EXPONENTS  0.7958262D+01 0.2378083D+01 0.8143321D+00 0.2888755D+00 0.2888755D+00
EXPONENTS  0.2888755D+00 0.1005682D+00 0.1005682D+00 0.1005682D+00 0.8000000D+00
EXPONENTS  0.8000000D+00 0.8000000D+00 0.8000000D+00 0.8000000D+00 0.8000000D+00
EXPONENTS  0.3406134D+02 0.5123575D+01 0.1164663D+01 0.3272304D+00 0.1030724D+00
EXPONENTS  0.8000000D+00 0.8000000D+00 0.8000000D+00 0.3406134D+02 0.5123575D+01
EXPONENTS  0.1164663D+01 0.3272304D+00 0.1030724D+00 0.8000000D+00 0.8000000D+00
EXPONENTS  0.8000000D+00 0.3406134D+02 0.5123575D+01 0.1164663D+01 0.3272304D+00
EXPONENTS  0.1030724D+00 0.8000000D+00 0.8000000D+00 0.8000000D+00 0.3406134D+02
EXPONENTS  0.5123575D+01 0.1164663D+01 0.3272304D+00 0.1030724D+00 0.8000000D+00
EXPONENTS  0.8000000D+00 0.8000000D+00 0.3406134D+02 0.5123575D+01 0.1164663D+01
EXPONENTS  0.3272304D+00 0.1030724D+00 0.8000000D+00 0.8000000D+00 0.8000000D+00
EXPONENTS  0.3406134D+02 0.5123575D+01 0.1164663D+01 0.3272304D+00 0.1030724D+00
EXPONENTS  0.8000000D+00 0.8000000D+00 0.8000000D+00 0.3406134D+02 0.5123575D+01
EXPONENTS  0.1164663D+01 0.3272304D+00 0.1030724D+00 0.8000000D+00 0.8000000D+00
EXPONENTS  0.8000000D+00 0.3406134D+02 0.5123575D+01 0.1164663D+01 0.3272304D+00
EXPONENTS  0.1030724D+00 0.8000000D+00 0.8000000D+00 0.8000000D+00 0.3406134D+02
EXPONENTS  0.5123575D+01 0.1164663D+01 0.3272304D+00 0.1030724D+00 0.8000000D+00
EXPONENTS  0.8000000D+00 0.8000000D+00 0.3406134D+02 0.5123575D+01 0.1164663D+01
EXPONENTS  0.3272304D+00 0.1030724D+00 0.8000000D+00 0.8000000D+00 0.8000000D+00
MO    1     MO 0.0        OCC NO =    2.0000000  ORB. ENERGY =  -10.178133
  0.66834150D-04  0.12473755D-03  0.21289410D-03  0.33085869D-03  0.44316190D-03
  0.45522326D-03  0.16430556D-03  0.48688498D-04  0.24005598D-03 -0.57637342D-03
  0.22325332D-02 -0.16448859D-04 -0.17556922D-04 -0.15375269D-04 -0.97092912D-05
 -0.27552684D-06 -0.29408747D-06 -0.25754367D-06 -0.16263562D-06  0.95098946D-04
  0.10150521D-03  0.88891999D-04  0.56134190D-04 -0.11050484D-03 -0.17963224D-05
 -0.10019965D-03 -0.39291855D-03 -0.35086190D-05  0.30440150D-03  0.10909769D-03
 -0.87619796D-04 -0.21477897D-04  0.57388725D-06 -0.22213854D-03 -0.24130991D-05
 -0.47351048D-02 -0.88374788D-02 -0.15083245D-01 -0.23440870D-01 -0.31397392D-01
 -0.32251923D-01 -0.20990209D-01 -0.62200069D-02 -0.88338213D-04 -0.67771861D-03
 -0.71378517D-03 -0.66865530D-06 -0.71369869D-06 -0.62501330D-06 -0.39468812D-06
  0.22738949D-05  0.24270739D-05  0.21254817D-05  0.13422152D-05 -0.12573703D-03
 -0.13420720D-03 -0.11753039D-03 -0.74218976D-04  0.32789241D-03 -0.11836599D-05
 -0.25863467D-03 -0.57722477D-03  0.46183868D-05  0.54660311D-04  0.41674597D-05
 -0.26213642D-03  0.25796896D-03  0.14269839D-05 -0.42623183D-03 -0.40939196D-06
 -0.25343494D+00 -0.47300451D+00 -0.80729393D+00 -0.12546154D+01 -0.16804689D+01
 -0.17262056D+01 -0.11179483D+01 -0.33128046D+00 -0.18627067D-01  0.88762600D-02
 -0.10213932D-01 -0.20054647D-03 -0.21405612D-03 -0.18745715D-03 -0.11837685D-03
 -0.19393286D-05 -0.20699699D-05 -0.18127520D-05 -0.11447303D-05  0.26423675D-04
  0.28203683D-04  0.24699046D-04  0.15597140D-04  0.27921875D-03  0.32124961D-05
 -0.22145094D-03  0.32698124D-03 -0.48834807D-05 -0.12004197D-02  0.17187645D-03
 -0.29330001D-03  0.12142356D-03  0.19817605D-04  0.95329404D-04  0.10815097D-04
 -0.74153030D-02 -0.13839732D-01 -0.23620772D-01 -0.36709040D-01 -0.49169171D-01
 -0.50507389D-01 -0.33122828D-01 -0.98152536D-02 -0.25798172D-04 -0.13234327D-02
  0.60157135D-02 -0.56782297D-04 -0.60607388D-04 -0.53076212D-04 -0.33516967D-04
 -0.10171485D-03 -0.10856679D-03 -0.95076095D-04 -0.60039370D-04  0.42450003D-05
  0.45309612D-05  0.39679363D-05  0.25057024D-05 -0.24405582D-04  0.12392002D-03
  0.14659075D-03 -0.89700361D-05 -0.12043333D-02  0.22601905D-03 -0.14718645D-03
  0.33344802D-03 -0.18626157D-03 -0.47620116D-03 -0.20840526D-04  0.11656011D-02
 -0.93197653D-04 -0.17394172D-03 -0.29687263D-03 -0.46136973D-03 -0.61797223D-03
 -0.63479134D-03 -0.55164079D-03 -0.16346715D-03  0.11735049D-03  0.14875408D-03
 -0.32140349D-02  0.74674994D-04  0.79705412D-04  0.69801084D-04  0.44078515D-04
 -0.15907680D-03 -0.16979287D-03 -0.14869412D-03 -0.93898488D-04 -0.16903766D-03
 -0.18042474D-03 -0.15800486D-03 -0.99778102D-04 -0.14394140D-04  0.11287984D-03
  0.99883047D-05 -0.18547652D-03  0.63202026D-03  0.38997156D-03 -0.38529703D-05
 -0.79442740D-04  0.83295710D-04 -0.10763053D-03 -0.64473476D-04  0.21130310D-03
  0.20496527D-03  0.38254195D-03  0.65289819D-03  0.10146690D-02  0.13590776D-02
  0.13960671D-02  0.76677900D-03  0.22721883D-03  0.19264381D-03 -0.16639571D-03
  0.27058802D-02  0.61951016D-04  0.66124294D-04  0.57907578D-04  0.36567915D-04
 -0.92204541D-06 -0.98415822D-06 -0.86186507D-06 -0.54425706D-06 -0.14542970D-03
 -0.15522645D-03 -0.13593775D-03 -0.85842998D-04 -0.23110706D-04  0.65961662D-06
  0.40795466D-04  0.26980912D-03 -0.23801760D-05 -0.63769976D-03 -0.15490938D-04
 -0.17120528D-05  0.17202990D-04 -0.25643716D-06 -0.50027924D-04 -0.26644393D-06
 -0.93832890D-04 -0.17512731D-03 -0.29889612D-03 -0.46451444D-03 -0.62218434D-03
 -0.63911809D-03 -0.55486668D-03 -0.16442307D-03  0.11906106D-03  0.14350255D-03
 -0.31804237D-02  0.69209077D-04  0.73871288D-04  0.64691918D-04  0.40852141D-04
  0.15980986D-03  0.17057532D-03  0.14937934D-03  0.94331194D-04 -0.17066113D-03
 -0.18215757D-03 -0.15952237D-03 -0.10073639D-03 -0.10926407D-04 -0.11330816D-03
  0.10837351D-04 -0.15754418D-03 -0.62547184D-03  0.39007251D-03 -0.71503113D-05
 -0.79384684D-04  0.86534996D-04  0.11091320D-03 -0.59473530D-04 -0.20704855D-03
 -0.74212389D-02 -0.13850811D-01 -0.23639680D-01 -0.36738425D-01 -0.49208530D-01
 -0.50547819D-01 -0.33145556D-01 -0.98219885D-02 -0.34710379D-04 -0.13064081D-02
  0.59711073D-02 -0.63037406D-04 -0.67283867D-04 -0.58923061D-04 -0.37209179D-04
  0.98706007D-04  0.10535525D-03  0.92263633D-04  0.58263336D-04  0.32364176D-05
  0.34544361D-05  0.30251821D-05  0.19103648D-05 -0.16288905D-04 -0.12139380D-03
  0.14775237D-03 -0.50013198D-04  0.11987414D-02  0.19341377D-03 -0.16463906D-03
  0.33064169D-03 -0.16600264D-03  0.44144337D-03  0.14021692D-04 -0.11826316D-02
  0.15921692D-04  0.28735401D-04  0.42423059D-04 -0.11019982D-03  0.11974938D-03
  0.63454763D-04  0.56120927D-06 -0.27590655D-04  0.17004230D-04  0.30689159D-04
  0.45307459D-04 -0.11390498D-03 -0.33053890D-03 -0.13840199D-03  0.75878438D-04
 -0.31795712D-04  0.16745443D-04  0.30222102D-04  0.44617926D-04 -0.11287499D-03
 -0.32110433D-03 -0.14315674D-03 -0.81266779D-04 -0.28374584D-04  0.12791111D-04
  0.23085341D-04  0.34081682D-04  0.31756415D-03 -0.38734896D-04  0.92001462D-04
  0.18072247D-03  0.20854085D-03  0.13626634D-04  0.24593289D-04  0.36307917D-04
  0.31357732D-03 -0.53642071D-04  0.95477319D-04 -0.17801099D-03  0.20414866D-03
  0.23043527D-04  0.41588856D-04  0.61399056D-04  0.27292968D-03  0.14438234D-03
 -0.25487783D-04 -0.35865910D-03  0.29841120D-04  0.58299927D-05  0.10521945D-04
  0.15533909D-04 -0.12904713D-03 -0.15518604D-03 -0.65627035D-05  0.11808083D-03
  0.25757894D-04 -0.79730418D-05 -0.14389711D-04 -0.21244024D-04  0.34732745D-04
  0.20152113D-03 -0.34236897D-04 -0.14290733D-06  0.50906147D-04  0.55882876D-05
  0.10085717D-04  0.14889890D-04 -0.12637522D-03 -0.14998520D-03 -0.38082699D-05
 -0.11615270D-03  0.27536008D-04  0.22959980D-04  0.41438072D-04  0.61176448D-04
  0.26976841D-03  0.14110334D-03 -0.36084485D-04  0.35728424D-03  0.22966344D-04
MO    2     MO 0.0        OCC NO =    2.0000000  ORB. ENERGY =  -10.171653
 -0.22878786D-02 -0.42700382D-02 -0.72878288D-02 -0.11326014D-01 -0.15170397D-01
 -0.15583284D-01 -0.10143677D-01 -0.30058655D-02  0.19335067D-03 -0.12907964D-02
  0.27576352D-02  0.22566590D-03  0.24086769D-03  0.21093707D-03  0.13320413D-03
  0.22320607D-05  0.23824216D-05  0.20863779D-05  0.13175217D-05 -0.72459271D-04
 -0.77340429D-04 -0.67729977D-04 -0.42770637D-04  0.32259094D-03 -0.89310161D-06
  0.12024580D-04 -0.53526219D-03 -0.30728270D-05  0.17080834D-04  0.27981915D-03
 -0.16761653D-03 -0.11220262D-03  0.44389920D-05  0.16616211D-03 -0.27854388D-06
 -0.25370154D+00 -0.47350207D+00 -0.80814314D+00 -0.12559352D+01 -0.16822366D+01
 -0.17280214D+01 -0.11184966D+01 -0.33144296D+00 -0.19146491D-01  0.96048342D-02
 -0.55502951D-02 -0.92601561D-04 -0.98839587D-04 -0.86557614D-04 -0.54660056D-04
  0.17817053D-05  0.19017283D-05  0.16654164D-05  0.10516897D-05 -0.46044436D-03
 -0.49146180D-03 -0.43039193D-03 -0.27178715D-03  0.35567662D-03  0.31377127D-05
  0.10347811D-02 -0.47477999D-03  0.25615071D-05 -0.11518360D-03  0.49037594D-03
 -0.66756707D-03  0.17719113D-03  0.80807030D-05 -0.74471322D-03 -0.13046205D-05
  0.47227257D-02  0.88143747D-02  0.15043812D-01  0.23379587D-01  0.31315309D-01
  0.32167606D-01  0.20707282D-01  0.61361677D-02  0.64213840D-03 -0.13652387D-02
  0.71819727D-02 -0.12371537D-03 -0.13204935D-03 -0.11564068D-03 -0.73025646D-04
  0.63576633D-07  0.67859419D-07  0.59427094D-07  0.37527470D-07  0.17163466D-03
  0.18319669D-03  0.16043236D-03  0.10131104D-03 -0.15967558D-03  0.11847617D-05
  0.40822269D-03 -0.86128835D-03  0.59553238D-05  0.21337530D-02  0.21509339D-04
 -0.19877888D-03  0.17726954D-03  0.99557806D-05  0.88540328D-04  0.82384210D-05
  0.77776407D-03  0.14515990D-02  0.24774966D-02  0.38502772D-02  0.51571749D-02
  0.52975357D-02  0.33978400D-02  0.10068784D-02 -0.32418903D-05  0.27409912D-03
 -0.63202139D-02  0.28695405D-04  0.30628446D-04  0.26822504D-04  0.16938078D-04
 -0.13417327D-03 -0.14321174D-03 -0.12541601D-03 -0.79198647D-04 -0.76836487D-04
 -0.82012512D-04 -0.71821500D-04 -0.45354383D-04  0.45082953D-04  0.12363366D-03
 -0.12538260D-03  0.49512098D-03  0.14893817D-02 -0.12094352D-02  0.10381829D-04
 -0.47594115D-04  0.37212286D-04 -0.88766602D-04 -0.10599589D-03  0.15874927D-03
 -0.15217616D-03 -0.28401770D-03 -0.48474330D-03 -0.75333952D-03 -0.10090452D-02
 -0.10365080D-02 -0.64916703D-03 -0.19236700D-03 -0.37238080D-04  0.38264873D-04
  0.55199602D-02 -0.24281323D-04 -0.25917014D-04 -0.22696522D-04 -0.14332571D-04
 -0.73017870D-05 -0.77936657D-05 -0.68252117D-05 -0.43100362D-05  0.49579348D-04
  0.52919219D-04  0.46343388D-04  0.29265272D-04  0.64259018D-04 -0.20577296D-04
 -0.14165072D-03  0.29002864D-03 -0.98163485D-03 -0.78076595D-03  0.23065717D-04
 -0.25817663D-04  0.27519462D-05 -0.21463804D-04  0.41046389D-04  0.58887226D-04
 -0.16597393D-03 -0.30976950D-03 -0.52869482D-03 -0.82164457D-03 -0.11005350D-02
 -0.11304878D-02 -0.70313850D-03 -0.20836031D-03 -0.14544482D-03  0.37578701D-03
 -0.41833680D-02  0.15896823D-05  0.16967699D-05  0.14859264D-05  0.93834405D-06
 -0.26012182D-06 -0.27764471D-06 -0.24314411D-06 -0.15354248D-06  0.66904171D-05
  0.71411114D-05  0.62537449D-05  0.39491621D-05 -0.13150507D-04 -0.26604080D-06
  0.19127753D-04 -0.39848226D-03 -0.28842809D-05  0.10840454D-02 -0.36003019D-04
  0.25495352D-04  0.10507666D-04 -0.21709940D-05 -0.33895524D-04 -0.22991643D-06
 -0.15820359D-03 -0.29526714D-03 -0.50394312D-03 -0.78317796D-03 -0.10490117D-02
 -0.10775622D-02 -0.67611001D-03 -0.20035098D-03 -0.36211025D-04  0.34122927D-04
  0.55420676D-02 -0.24559599D-04 -0.26214036D-04 -0.22956636D-04 -0.14496830D-04
  0.82835204D-05  0.88415327D-05  0.77428690D-05  0.48895254D-05  0.50171219D-04
  0.53550960D-04  0.46896628D-04  0.29614637D-04  0.63151575D-04  0.19406321D-04
 -0.14215006D-03  0.26233095D-03  0.97385465D-03 -0.80877855D-03  0.22400681D-04
 -0.25773964D-04  0.33732823D-05  0.25446888D-04  0.42549497D-04 -0.56791868D-04
  0.76601311D-03  0.14296673D-02  0.24400650D-02  0.37921047D-02  0.50792570D-02
  0.52174971D-02  0.33497839D-02  0.99263801D-03 -0.12228236D-04  0.28748823D-03
 -0.63514117D-02  0.21682271D-04  0.23142879D-04  0.20267106D-04  0.12798425D-04
  0.13556675D-03  0.14469909D-03  0.12671854D-03  0.80021181D-04 -0.77894525D-04
 -0.83141823D-04 -0.72810481D-04 -0.45978912D-04  0.51850271D-04 -0.12445272D-03
 -0.12392942D-03  0.54942296D-03 -0.14829826D-02 -0.11982333D-02  0.63685841D-05
 -0.47437268D-04  0.41068684D-04  0.91206139D-04 -0.10132777D-03 -0.16177508D-03
  0.26445675D-04  0.47729039D-04  0.70464019D-04  0.14382747D-03 -0.17753116D-03
 -0.17346845D-03  0.29088664D-06  0.23080026D-03  0.10214893D-04  0.18435795D-04
  0.27217397D-04  0.24948765D-03 -0.16875572D-03 -0.31665533D-03  0.16316261D-03
 -0.85567851D-04  0.10269373D-04  0.18534120D-04  0.27362557D-04  0.25124360D-03
 -0.16742314D-03 -0.31624953D-03 -0.16765538D-03 -0.86122619D-04 -0.16294363D-04
 -0.29407995D-04 -0.43416033D-04  0.62103022D-04  0.91261174D-03  0.28533240D-03
  0.93067666D-03  0.44213072D-03 -0.14681448D-04 -0.26497013D-04 -0.39118449D-04
  0.53703476D-04  0.90393872D-03  0.29397151D-03 -0.92607605D-03  0.44162901D-03
  0.20444720D-04  0.36898541D-04  0.54474582D-04 -0.32564042D-03 -0.76503933D-03
  0.39274094D-04  0.13801592D-04 -0.65020440D-04 -0.99588302D-05 -0.17973653D-04
 -0.26535121D-04  0.10389555D-03  0.32431631D-03  0.16343223D-04 -0.32414202D-04
  0.31166159D-04  0.17834751D-04  0.32188081D-04  0.47520368D-04 -0.19066045D-03
 -0.36819495D-03 -0.35628631D-04  0.24088617D-06  0.50824045D-04 -0.10011686D-04
 -0.18069046D-04 -0.26675953D-04  0.10384253D-03  0.32399590D-03  0.13998630D-04
  0.34439529D-04  0.31529517D-04  0.19292830D-04  0.34819615D-04  0.51405393D-04
 -0.32229208D-03 -0.75426486D-03  0.40396255D-04 -0.11453234D-04 -0.67090143D-04
MO    3     MO 0.0        OCC NO =    2.0000000  ORB. ENERGY =  -10.171110
  0.14949644D-04  0.27901633D-04  0.47620728D-04  0.74007368D-04  0.99127652D-04
  0.10182557D-03  0.43549806D-04  0.12905069D-04  0.68104536D-04 -0.89397076D-04
 -0.54460765D-03 -0.85848456D-04 -0.91631565D-04 -0.80245273D-04 -0.50673891D-04
 -0.68093961D-05 -0.72681053D-05 -0.63649583D-05 -0.40193919D-05  0.40649617D-04
  0.43387945D-04  0.37996486D-04  0.23994308D-04  0.91997414D-04  0.48191484D-05
 -0.53123575D-04  0.66007513D-04  0.22560975D-05  0.52679051D-05  0.42063198D-05
 -0.57697580D-05  0.15634382D-05 -0.23836788D-05  0.14203143D-04  0.64209860D-05
 -0.13802306D-03 -0.25760271D-03 -0.43965988D-03 -0.68327538D-03 -0.91519920D-03
 -0.94010781D-03 -0.63994218D-03 -0.18963341D-03  0.59148128D-04 -0.33541008D-03
  0.13257489D-02  0.19159448D-04  0.20450108D-04  0.17908944D-04  0.11309275D-04
 -0.14300538D-04 -0.15263882D-04 -0.13367166D-04 -0.84411992D-05 -0.29344700D-04
 -0.31321481D-04 -0.27429421D-04 -0.17321338D-04  0.32996930D-05  0.15612560D-04
 -0.53180775D-04  0.37077353D-04  0.11068230D-04  0.24786934D-03 -0.56653309D-05
 -0.89333363D-05  0.14598667D-04  0.75891541D-05 -0.35566834D-04  0.87284844D-05
 -0.13495455D-02 -0.25187574D-02 -0.42988544D-02 -0.66808492D-02 -0.89485265D-02
 -0.91920750D-02 -0.57059251D-02 -0.16908309D-02 -0.26163849D-03 -0.13782999D-03
  0.18779047D-02  0.13130969D-03  0.14015526D-03  0.12273933D-03  0.77508359D-04
 -0.15834810D-04 -0.16901509D-04 -0.14801299D-04 -0.93468360D-05 -0.24841660D-03
 -0.26515097D-03 -0.23220287D-03 -0.14663322D-03  0.11121071D-04  0.69173999D-04
 -0.12557193D-03 -0.22724688D-03 -0.23067827D-03  0.57915829D-03  0.76418126D-04
 -0.93839279D-04  0.17421153D-04 -0.36533753D-04  0.91304129D-04  0.11127270D-03
  0.16701826D-01  0.31171861D-01  0.53202144D-01  0.82681447D-01  0.11074597D+00
  0.11376010D+00  0.74090332D-01  0.21955112D-01  0.68275523D-03  0.47410774D-03
 -0.16143597D-02  0.18120771D-04  0.19341461D-04  0.16938059D-04  0.10696173D-04
  0.23591564D-03  0.25180789D-03  0.22051782D-03  0.13925426D-03 -0.80702698D-04
 -0.86139167D-04 -0.75435370D-04 -0.47636497D-04  0.74084444D-05 -0.20996777D-03
  0.27801039D-04 -0.75076643D-06  0.49818473D-03 -0.64996584D-04  0.17469140D-04
  0.34821602D-03 -0.36568516D-03 -0.19478130D-04  0.37403664D-03 -0.12742377D-04
  0.13821049D+00  0.25795253D+00  0.44025692D+00  0.68420324D+00  0.91644201D+00
  0.94138445D+00  0.61003044D+00  0.18076969D+00  0.94217858D-02 -0.34938694D-02
  0.30194037D-02  0.45212423D-05  0.48258120D-05  0.42261485D-05  0.26687602D-05
  0.60923470D-04  0.65027528D-04  0.56947098D-04  0.35961384D-04 -0.13554122D-04
 -0.14467184D-04 -0.12669468D-04 -0.80006111D-05 -0.41014448D-04  0.38559461D-03
  0.67848043D-04  0.14127146D-04 -0.61444425D-03  0.30654224D-04 -0.22035176D-03
  0.10450931D-03  0.11584245D-03 -0.24292045D-03 -0.33282634D-03  0.55817634D-03
  0.51725488D-01  0.96539130D-01  0.16476683D+00  0.25606411D+00  0.34297983D+00
  0.35231457D+00  0.22879884D+00  0.67799724D-01  0.29826638D-02  0.40050035D-03
 -0.39203846D-02 -0.38018111D-04 -0.40579169D-04 -0.35536734D-04 -0.22441005D-04
 -0.92396390D-05 -0.98620595D-05 -0.86365834D-05 -0.54538949D-05  0.88751831D-04
  0.94730523D-04  0.82959149D-04  0.52387670D-04  0.55453224D-04 -0.78323971D-05
 -0.13614462D-03 -0.21242921D-03  0.12799720D-05  0.51865015D-03  0.19692407D-03
 -0.63788790D-03  0.44096383D-03  0.12979669D-03 -0.22916021D-03 -0.24836007D-03
  0.20401528D+00  0.38076890D+00  0.64987208D+00  0.10099661D+01  0.13527784D+01
  0.13895965D+01  0.90032876D+00  0.26679350D+00  0.14086404D-01 -0.52956740D-02
  0.38392123D-02  0.23998897D-04  0.25615563D-04  0.22432530D-04  0.14165863D-04
  0.65273492D-04  0.69670586D-04  0.61013202D-04  0.38529077D-04 -0.67032759D-04
 -0.71548364D-04 -0.62657645D-04 -0.39567522D-04 -0.71803355D-04 -0.53344553D-03
  0.19375743D-03  0.37206377D-04  0.83463544D-03 -0.10341546D-03 -0.36412753D-03
  0.28109297D-03  0.83034561D-04  0.24633740D-03 -0.40327502D-03 -0.67664669D-03
  0.25662816D-01  0.47896424D-01  0.81746561D-01  0.12704232D+00  0.17016424D+00
  0.17479553D+00  0.11368255D+00  0.33687432D-01  0.12508860D-02  0.56150302D-03
 -0.27242962D-02  0.23577775D-04  0.25166072D-04  0.22038893D-04  0.13917287D-04
 -0.20388241D-03 -0.21761678D-03 -0.19057535D-03 -0.12034596D-03 -0.71289583D-04
 -0.76091945D-04 -0.66636633D-04 -0.42080204D-04 -0.63207977D-05  0.22153059D-03
  0.39648529D-04 -0.26310095D-04 -0.68180556D-03  0.62352761D-04  0.60101842D-05
  0.51736474D-03 -0.52337493D-03 -0.13978117D-04  0.50850661D-03  0.31338699D-04
 -0.10282948D-04 -0.18558620D-04 -0.27398728D-04  0.48555120D-04  0.96383462D-04
 -0.39966597D-04 -0.34955100D-05 -0.51224649D-05  0.12202386D-05  0.22022813D-05
  0.32513035D-05  0.12811929D-04  0.63839416D-04  0.18117978D-04  0.25309077D-04
  0.11745393D-05 -0.17685251D-05 -0.31918264D-05 -0.47122029D-05  0.25833875D-04
  0.50185769D-04  0.11005776D-04 -0.21297672D-04  0.45602451D-05  0.20320693D-04
  0.36674698D-04  0.54144116D-04 -0.15499610D-03 -0.12055329D-04 -0.58750581D-05
 -0.37717134D-05 -0.21025278D-04  0.14820526D-04  0.26748020D-04  0.39489020D-04
 -0.12223789D-03 -0.19200876D-04 -0.21829465D-04  0.12313888D-04 -0.19153169D-06
 -0.23716965D-04 -0.42804274D-04 -0.63193419D-04  0.16814255D-04 -0.15845344D-03
  0.35041593D-04  0.11859629D-04 -0.10090518D-03 -0.58777322D-04 -0.10608105D-03
 -0.15661110D-03  0.81207995D-04 -0.77537146D-04 -0.14901148D-03  0.70293240D-03
  0.31010452D-03 -0.65049889D-04 -0.11740176D-03 -0.17332424D-03 -0.71628532D-04
  0.57450685D-04 -0.17136161D-03  0.30777761D-04  0.44101699D-03 -0.87569638D-04
 -0.15804530D-03 -0.23332770D-03  0.15754267D-03 -0.25052969D-04 -0.19351981D-03
 -0.10408155D-02  0.51120933D-03 -0.35697061D-04 -0.64425900D-04 -0.95114167D-04
  0.39173884D-06 -0.10837555D-03  0.68782497D-04 -0.92889643D-04 -0.18197875D-03
MO    4     MO 0.0        OCC NO =    2.0000000  ORB. ENERGY =  -10.171038
 -0.25910062D-05 -0.48357878D-05 -0.82534141D-05 -0.12826630D-04 -0.17180367D-04
 -0.17647958D-04 -0.76544725D-05 -0.22682420D-05 -0.11128930D-04  0.13639451D-04
  0.10162096D-03  0.15573242D-04  0.16622320D-04  0.14556803D-04  0.91924396D-05
 -0.34015919D-04 -0.36307372D-04 -0.31795757D-04 -0.20078625D-04 -0.65730575D-05
 -0.70158460D-05 -0.61440452D-05 -0.38798880D-05 -0.16427614D-04  0.16852876D-04
  0.80563655D-05 -0.13056818D-04  0.51007265D-05 -0.86917396D-06 -0.27361250D-06
  0.79931670D-06 -0.52570420D-06 -0.15367696D-04 -0.25644527D-05  0.26606687D-04
  0.20489062D-04  0.38240261D-04  0.65266039D-04  0.10142995D-03  0.13585826D-03
  0.13955586D-03  0.96034802D-04  0.28457894D-04 -0.11578215D-04  0.62358407D-04
 -0.24295788D-03 -0.26813080D-05 -0.28619321D-05 -0.25063036D-05 -0.15826995D-05
 -0.70648175D-04 -0.75407330D-04 -0.66037089D-04 -0.41701599D-04  0.55676564D-05
  0.59427169D-05  0.52042649D-05  0.32864285D-05 -0.19258106D-05  0.83393929D-04
  0.94822059D-05 -0.93361706D-05  0.71865998D-04 -0.46621478D-04  0.12756057D-05
  0.18922460D-05 -0.31678518D-05  0.39420905D-04  0.67125713D-05  0.40245863D-04
  0.25551887D-03  0.47689389D-03  0.81393208D-03  0.12649318D-02  0.16942869D-02
  0.17403997D-02  0.10801428D-02  0.32007759D-03  0.50089890D-04  0.24933066D-04
 -0.35822363D-03 -0.23039533D-04 -0.24591572D-04 -0.21535782D-04 -0.13599578D-04
 -0.81811357D-04 -0.87322510D-04 -0.76471669D-04 -0.48290907D-04  0.47503350D-04
  0.50703372D-04  0.44402886D-04  0.28039870D-04 -0.91497397D-05  0.36718565D-03
  0.20817913D-04  0.65080052D-04 -0.12176762D-02 -0.97985661D-04 -0.10275393D-04
  0.18776601D-04 -0.85012075D-05 -0.23059116D-03 -0.25517666D-04  0.57908500D-03
 -0.28226332D-01 -0.52680907D-01 -0.89912411D-01 -0.13973287D+00 -0.18716233D+00
 -0.19225625D+00 -0.12476747D+00 -0.36972216D-01 -0.17157454D-02 -0.32606432D-03
  0.33829415D-02  0.14422755D-05  0.15394331D-05  0.13481406D-05  0.85133400D-06