[Molden Format]
[Title]
 Molden file created by orca_2mkl for BaseName=./ETB

[Atoms] AU
C    1   6          1.9217351309         1.8975330543        -0.0218176040 
C    2   6         -0.9822782100         1.8844093000        -0.0052681712 
C    3   6         -2.0877811235         1.8872193880         2.6291468876 
C    4   6         -2.6240550296         4.1534386850         3.8741984487 
C    5   6         -3.5849808441         4.1627578292         6.3219404870 
C    6   6         -4.0293866508         1.8938603319         7.5750323437 
C    7   6         -3.5062370129        -0.3786880624         6.3587989910 
C    8   6         -2.5453439250        -0.3758629909         3.9112877951 
H    9   1          2.6475702856         1.8961743523        -1.9550564128 
H   10   1          2.6752583214         0.2373509493         0.9460239684 
H   11   1          2.6593849952         3.5694750417         0.9380427539 
H   12   1         -1.6607964706         0.2223750769        -1.0298103064 
H   13   1         -1.6756230897         3.5345485134        -1.0387913514 
H   14   1         -2.2954343957         5.9331800676         2.9103631188 
H   15   1         -3.9954167518         5.9430572491         7.2475942053 
H   16   1         -4.7827315069         1.8961847571         9.4787226369 
H   17   1         -3.8553770969        -2.1567698577         7.3133988032 
H   18   1         -2.1550768029        -2.1587171085         2.9765254673 
[GTO]
  1 0
s   6 1.0 
    13575.3496820000         0.5435951735
     2035.2333680000         1.0145521571
      463.2256235900         1.7315729053
      131.2001959800         2.6910372890
       42.8530158900         3.6044547339
       15.5841857700         3.7025557541
s   2 1.0 
        6.2067138500         1.8383540665
        2.5764896500         0.5447575690
s   1 1.0 
        0.5769633900         0.4718145012
s   1 1.0 
        0.2297283100         0.2364944648
s   1 1.0 
        0.0951644400         0.1221141848
p   4 1.0 
       34.6972322400         1.3596662229
        7.9582622800         1.4512589862
        2.3780826900         1.2709231150
        0.8143320800         0.8025721212
p   1 1.0 
        0.2888754700         0.3018758836
p   1 1.0 
        0.1005682400         0.0807265050
d   1 1.0 
        0.8000000000         1.9292013661

  2 0
s   6 1.0 
    13575.3496820000         0.5435951735
     2035.2333680000         1.0145521571
      463.2256235900         1.7315729053
      131.2001959800         2.6910372890
       42.8530158900         3.6044547339
       15.5841857700         3.7025557541
s   2 1.0 
        6.2067138500         1.8383540665
        2.5764896500         0.5447575690
s   1 1.0 
        0.5769633900         0.4718145012
s   1 1.0 
        0.2297283100         0.2364944648
s   1 1.0 
        0.0951644400         0.1221141848
p   4 1.0 
       34.6972322400         1.3596662229
        7.9582622800         1.4512589862
        2.3780826900         1.2709231150
        0.8143320800         0.8025721212
p   1 1.0 
        0.2888754700         0.3018758836
p   1 1.0 
        0.1005682400         0.0807265050
d   1 1.0 
        0.8000000000         1.9292013661

  3 0
s   6 1.0 
    13575.3496820000         0.5435951735
     2035.2333680000         1.0145521571
      463.2256235900         1.7315729053
      131.2001959800         2.6910372890
       42.8530158900         3.6044547339
       15.5841857700         3.7025557541
s   2 1.0 
        6.2067138500         1.8383540665
        2.5764896500         0.5447575690
s   1 1.0 
        0.5769633900         0.4718145012
s   1 1.0 
        0.2297283100         0.2364944648
s   1 1.0 
        0.0951644400         0.1221141848
p   4 1.0 
       34.6972322400         1.3596662229
        7.9582622800         1.4512589862
        2.3780826900         1.2709231150
        0.8143320800         0.8025721212
p   1 1.0 
        0.2888754700         0.3018758836
p   1 1.0 
        0.1005682400         0.0807265050
d   1 1.0 
        0.8000000000         1.9292013661

  4 0
s   6 1.0 
    13575.3496820000         0.5435951735
     2035.2333680000         1.0145521571
      463.2256235900         1.7315729053
      131.2001959800         2.6910372890
       42.8530158900         3.6044547339
       15.5841857700         3.7025557541
s   2 1.0 
        6.2067138500         1.8383540665
        2.5764896500         0.5447575690
s   1 1.0 
        0.5769633900         0.4718145012
s   1 1.0 
        0.2297283100         0.2364944648
s   1 1.0 
        0.0951644400         0.1221141848
p   4 1.0 
       34.6972322400         1.3596662229
        7.9582622800         1.4512589862
        2.3780826900         1.2709231150
        0.8143320800         0.8025721212
p   1 1.0 
        0.2888754700         0.3018758836
p   1 1.0 
        0.1005682400         0.0807265050
d   1 1.0 
        0.8000000000         1.9292013661

  5 0
s   6 1.0 
    13575.3496820000         0.5435951735
     2035.2333680000         1.0145521571
      463.2256235900         1.7315729053
      131.2001959800         2.6910372890
       42.8530158900         3.6044547339
       15.5841857700         3.7025557541
s   2 1.0 
        6.2067138500         1.8383540665
        2.5764896500         0.5447575690
s   1 1.0 
        0.5769633900         0.4718145012
s   1 1.0 
        0.2297283100         0.2364944648
s   1 1.0 
        0.0951644400         0.1221141848
p   4 1.0 
       34.6972322400         1.3596662229
        7.9582622800         1.4512589862
        2.3780826900         1.2709231150
        0.8143320800         0.8025721212
p   1 1.0 
        0.2888754700         0.3018758836
p   1 1.0 
        0.1005682400         0.0807265050
d   1 1.0 
        0.8000000000         1.9292013661

  6 0
s   6 1.0 
    13575.3496820000         0.5435951735
     2035.2333680000         1.0145521571
      463.2256235900         1.7315729053
      131.2001959800         2.6910372890
       42.8530158900         3.6044547339
       15.5841857700         3.7025557541
s   2 1.0 
        6.2067138500         1.8383540665
        2.5764896500         0.5447575690
s   1 1.0 
        0.5769633900         0.4718145012
s   1 1.0 
        0.2297283100         0.2364944648
s   1 1.0 
        0.0951644400         0.1221141848
p   4 1.0 
       34.6972322400         1.3596662229
        7.9582622800         1.4512589862
        2.3780826900         1.2709231150
        0.8143320800         0.8025721212
p   1 1.0 
        0.2888754700         0.3018758836
p   1 1.0 
        0.1005682400         0.0807265050
d   1 1.0 
        0.8000000000         1.9292013661

  7 0
s   6 1.0 
    13575.3496820000         0.5435951735
     2035.2333680000         1.0145521571
      463.2256235900         1.7315729053
      131.2001959800         2.6910372890
       42.8530158900         3.6044547339
       15.5841857700         3.7025557541
s   2 1.0 
        6.2067138500         1.8383540665
        2.5764896500         0.5447575690
s   1 1.0 
        0.5769633900         0.4718145012
s   1 1.0 
        0.2297283100         0.2364944648
s   1 1.0 
        0.0951644400         0.1221141848
p   4 1.0 
       34.6972322400         1.3596662229
        7.9582622800         1.4512589862
        2.3780826900         1.2709231150
        0.8143320800         0.8025721212
p   1 1.0 
        0.2888754700         0.3018758836
p   1 1.0 
        0.1005682400         0.0807265050
d   1 1.0 
        0.8000000000         1.9292013661

  8 0
s   6 1.0 
    13575.3496820000         0.5435951735
     2035.2333680000         1.0145521571
      463.2256235900         1.7315729053
      131.2001959800         2.6910372890
       42.8530158900         3.6044547339
       15.5841857700         3.7025557541
s   2 1.0 
        6.2067138500         1.8383540665
        2.5764896500         0.5447575690
s   1 1.0 
        0.5769633900         0.4718145012
s   1 1.0 
        0.2297283100         0.2364944648
s   1 1.0 
        0.0951644400         0.1221141848
p   4 1.0 
       34.6972322400         1.3596662229
        7.9582622800         1.4512589862
        2.3780826900         1.2709231150
        0.8143320800         0.8025721212
p   1 1.0 
        0.2888754700         0.3018758836
p   1 1.0 
        0.1005682400         0.0807265050
d   1 1.0 
        0.8000000000         1.9292013661

  9 0
s   3 1.0 
       34.0613410000         0.2556300129
        5.1235746000         0.4613599287
        1.1646626000         0.6811215012
s   1 1.0 
        0.3272304100         0.3083545312
s   1 1.0 
        0.1030724100         0.1296483265
p   1 1.0 
        0.8000000000         1.0784563492

 10 0
s   3 1.0 
       34.0613410000         0.2556300129
        5.1235746000         0.4613599287
        1.1646626000         0.6811215012
s   1 1.0 
        0.3272304100         0.3083545312
s   1 1.0 
        0.1030724100         0.1296483265
p   1 1.0 
        0.8000000000         1.0784563492

 11 0
s   3 1.0 
       34.0613410000         0.2556300129
        5.1235746000         0.4613599287
        1.1646626000         0.6811215012
s   1 1.0 
        0.3272304100         0.3083545312
s   1 1.0 
        0.1030724100         0.1296483265
p   1 1.0 
        0.8000000000         1.0784563492

 12 0
s   3 1.0 
       34.0613410000         0.2556300129
        5.1235746000         0.4613599287
        1.1646626000         0.6811215012
s   1 1.0 
        0.3272304100         0.3083545312
s   1 1.0 
        0.1030724100         0.1296483265
p   1 1.0 
        0.8000000000         1.0784563492

 13 0
s   3 1.0 
       34.0613410000         0.2556300129
        5.1235746000         0.4613599287
        1.1646626000         0.6811215012
s   1 1.0 
        0.3272304100         0.3083545312
s   1 1.0 
        0.1030724100         0.1296483265
p   1 1.0 
        0.8000000000         1.0784563492

 14 0
s   3 1.0 
       34.0613410000         0.2556300129
        5.1235746000         0.4613599287
        1.1646626000         0.6811215012
s   1 1.0 
        0.3272304100         0.3083545312
s   1 1.0 
        0.1030724100         0.1296483265
p   1 1.0 
        0.8000000000         1.0784563492

 15 0
s   3 1.0 
       34.0613410000         0.2556300129
        5.1235746000         0.4613599287
        1.1646626000         0.6811215012
s   1 1.0 
        0.3272304100         0.3083545312
s   1 1.0 
        0.1030724100         0.1296483265
p   1 1.0 
        0.8000000000         1.0784563492

 16 0
s   3 1.0 
       34.0613410000         0.2556300129
        5.1235746000         0.4613599287
        1.1646626000         0.6811215012
s   1 1.0 
        0.3272304100         0.3083545312
s   1 1.0 
        0.1030724100         0.1296483265
p   1 1.0 
        0.8000000000         1.0784563492

 17 0
s   3 1.0 
       34.0613410000         0.2556300129
        5.1235746000         0.4613599287
        1.1646626000         0.6811215012
s   1 1.0 
        0.3272304100         0.3083545312
s   1 1.0 
        0.1030724100         0.1296483265
p   1 1.0 
        0.8000000000         1.0784563492

 18 0
s   3 1.0 
       34.0613410000         0.2556300129
        5.1235746000         0.4613599287
        1.1646626000         0.6811215012
s   1 1.0 
        0.3272304100         0.3083545312
s   1 1.0 
        0.1030724100         0.1296483265
p   1 1.0 
        0.8000000000         1.0784563492

[5D]
[7F]
[9G]
[MO]
 Sym=     1a
 Ene= -1.01781334410962E+01
 Spin= Alpha
 Occup= 2.000000
  1       0.000122948387
  2       0.000089376450
  3       0.000508793136
  4      -0.002437153950
  5       0.018282341160
  6      -0.000012097718
  7      -0.000000202643
  8       0.000069942861
  9      -0.000366060518
 10      -0.000005950533
 11      -0.000331923320
 12      -0.004867280595
 13      -0.000043463036
 14       0.003770775134
 15      -0.000019283010
 16      -0.000115145337
 17      -0.000001250828
 18       0.000101968355
 19       0.000000297474
 20      -0.008710719005
 21      -0.011417935715
 22      -0.000187230814
 23      -0.002865684880
 24      -0.005845227351
 25      -0.000000491779
 26       0.000001672392
 27      -0.000092476395
 28       0.001086182863
 29      -0.000003921015
 30      -0.000856758318
 31      -0.007150374825
 32       0.000057210290
 33       0.000677104889
 34       0.000231606384
 35      -0.000220936931
 36      -0.000000212208
 37       0.000138038407
 38       0.000000739676
 39      -0.466220003039
 40      -0.608124559455
 41      -0.039479639691
 42       0.037532633078
 43      -0.083642470946
 44      -0.000147496842
 45      -0.000001426327
 46       0.000019433942
 47       0.000924945538
 48       0.000010641778
 49      -0.000733582736
 50       0.004050481824
 51      -0.000060494142
 52      -0.014870205400
 53       0.000109014941
 54       0.000049413921
 55       0.000005605997
 56       0.000241123848
 57       0.000010272440
 58      -0.013641223037
 59      -0.018017654363
 60      -0.000054678633
 61      -0.005596040981
 62       0.049263020070
 63      -0.000041761938
 64      -0.000074808691
 65       0.000003122090
 66      -0.000080846411
 67       0.000410499892
 68       0.000485599413
 69      -0.000111116369
 70      -0.014918684756
 71       0.002799812178
 72      -0.000167226976
 73      -0.000010802670
 74       0.000604188381
 75      -0.000249136494
 76      -0.000246838495
 77      -0.000171446800
 78      -0.000300073201
 79       0.000248721677
 80       0.000628996046
 81      -0.026319914776
 82       0.000054921563
 83      -0.000116996947
 84      -0.000124322910
 85      -0.000047682311
 86       0.000373927974
 87       0.000033087455
 88      -0.002297591299
 89       0.007829154311
 90       0.004830774769
 91       0.000074783485
 92      -0.000033419775
 93       0.000109528792
 94       0.000039181897
 95      -0.000055790202
 96       0.000377054982
 97       0.000417100827
 98       0.000408304128
 99      -0.000703592426
100       0.022158606915
101       0.000045563400
102      -0.000000678141
103      -0.000106959855
104      -0.000076556980
105       0.000002185059
106       0.000135139864
107       0.003342261909
108      -0.000029484443
109      -0.007899509052
110       0.000015444968
111      -0.000025931935
112      -0.000000138111
113      -0.000007142274
114      -0.000000132924
115      -0.000172615385
116      -0.000301827970
117       0.000252347176
118       0.000606790310
119      -0.026044670465
120       0.000050901520
121       0.000117536096
122      -0.000125516930
123      -0.000036195030
124      -0.000375346848
125       0.000035900023
126      -0.001951579391
127      -0.007748035669
128       0.004832025222
129       0.000077691739
130      -0.000030828057
131      -0.000107323452
132       0.000037442630
133       0.000057491771
134      -0.013652142669
135      -0.018030017559
136      -0.000073567851
137      -0.005524053527
138       0.048897736719
139      -0.000046362412
140       0.000072595763
141       0.000002380303
142      -0.000053958948
143      -0.000402131479
144       0.000489447425
145      -0.000619538751
146       0.014849415541
147       0.002395914064
148      -0.000149038356
149       0.000007268133
150      -0.000613016179
151      -0.000256728385
152       0.000228821820
153       0.000062284128
154      -0.000357380238
155       0.000923647691
156       0.000058838508
157       0.000000520382
158      -0.000025583469
159       0.000066518909
160      -0.000369396147
161      -0.002549503790
162      -0.000128333420
163       0.000070358377
164      -0.000029482614
165       0.000065506560
166      -0.000366055887
167      -0.002476733340
168      -0.000132742266
169      -0.000075354723
170      -0.000026310369
171       0.000050037595
172       0.001029866984
173      -0.000298768960
174       0.000085308471
175       0.000167575141
176       0.000193369767
177       0.000053306080
178       0.001016937598
179      -0.000413750583
180       0.000088531464
181      -0.000165060915
182       0.000189297101
183       0.000090144058
184       0.000885116487
185       0.001113646000
186      -0.000023633579
187      -0.000332567097
188       0.000027670216
189       0.000022806370
190      -0.000418502451
191      -0.001196976786
192      -0.000006085275
193       0.000109490598
194       0.000023884039
195      -0.000031189772
196       0.000112638996
197       0.001554367375
198      -0.000031746206
199      -0.000000132511
200       0.000047202789
201       0.000021860843
202      -0.000409837389
203      -0.001156861854
204      -0.000003531223
205      -0.000107702740
206       0.000025532798
207       0.000089817232
208       0.000874864414
209       0.001088354483
210      -0.000033459384
211       0.000331292262
212       0.000021295571
 Sym=     1a
 Ene= -1.01716527197267E+01
 Spin= Alpha
 Occup= 2.000000
  1      -0.004208791185
  2      -0.005517803997
  3       0.000409802315
  4      -0.005458040481
  5       0.022582431561
  6       0.000165971540
  7       0.000001641624
  8      -0.000053291955
  9       0.001068621120
 10      -0.000002958506
 11       0.000039832859
 12      -0.006630563104
 13      -0.000038064661
 14       0.000211588926
 15      -0.000100736318
 16       0.000086129999
 17      -0.000000144383
 18       0.000231927928
 19       0.000002300948
 20      -0.466710431455
 21      -0.608422863869
 22      -0.040580548398
 23       0.040613357299
 24      -0.045451682400
 25      -0.000068106098
 26       0.000001310399
 27      -0.000338645138
 28       0.001178221375
 29       0.000010394049
 30       0.003427836103
 31      -0.005881339562
 32       0.000031730682
 33      -0.001426837486
 34       0.000159083466
 35      -0.000386021510
 36      -0.000000676249
 37       0.000600218838
 38       0.000004188626
 39       0.008687946315
 40       0.011264033832
 41       0.001360997586
 42      -0.005772814746
 43       0.058813582472
 44      -0.000090989513
 45       0.000000046759
 46       0.000126232939
 47      -0.000528944488
 48       0.000003924665
 49       0.001352286517
 50      -0.010669213918
 51       0.000073771605
 52       0.026431876351
 53       0.000159153863
 54       0.000045894809
 55       0.000004270379
 56       0.000114186223
 57       0.000005160571
 58       0.001430778102
 59       0.001848305511
 60      -0.000006871112
 61       0.001159008602
 62      -0.051756590528
 63       0.000021104742
 64      -0.000098681034
 65      -0.000056511286
 66       0.000149342677
 67       0.000409551285
 68      -0.000415344867
 69       0.006133313739
 70       0.018449723375
 71      -0.014981884747
 72       0.000033409457
 73      -0.000054942888
 74       0.000082287558
 75       0.000030051785
 76      -0.000046012098
 77      -0.000279943917
 78      -0.000353124048
 79      -0.000078925256
 80       0.000161800288
 81       0.045203267879
 82      -0.000017858297
 83      -0.000005370279
 84       0.000036464352
 85       0.000212865690
 86      -0.000068164756
 87      -0.000469234957
 88       0.003592731304
 89      -0.012160006805
 90      -0.009671742214
 91       0.000002470717
 92       0.000021276363
 93       0.000030524147
 94       0.000025338661
 95      -0.000011125746
 96      -0.000305326341
 97      -0.000382482629
 98      -0.000308266953
 99       0.001588988601
100      -0.034257838116
101       0.000001169171
102      -0.000000191313
103       0.000004920632
104      -0.000043562627
105      -0.000000881292
106       0.000063362973
107      -0.004936201052
108      -0.000035729045
109       0.013428618255
110       0.000009433858
111      -0.000017569718
112      -0.000000119177
113      -0.000031877632
114      -0.000001125333
115      -0.000291031999
116      -0.000367780082
117      -0.000076748435
118       0.000144286367
119       0.045384306967
120      -0.000018062962
121       0.000006092319
122       0.000036899658
123       0.000209197151
124       0.000064285762
125      -0.000470889092
126       0.003249625979
127       0.012063629545
128      -0.010018748483
129       0.000003028557
130       0.000022055498
131      -0.000029438020
132       0.000024971289
133       0.000013190374
134       0.001409160981
135       0.001822164694
136      -0.000025917466
137       0.001215623497
138      -0.052012071226
139       0.000015946760
140       0.000099705907
141      -0.000057289446
142       0.000171760230
143      -0.000412264527
144      -0.000410531032
145       0.006805979820
146      -0.018370454504
147      -0.014843121666
148       0.000036871759
149      -0.000052523169
150      -0.000083855983
151       0.000027890221
152       0.000047276630
153       0.000103452936
154       0.000466435389
155      -0.001369328582
156      -0.000160848834
157       0.000000269725
158       0.000214009834
159       0.000039959679
160       0.000809093518
161      -0.001301642099
162      -0.000293619049
163       0.000151292733
164      -0.000079342897
165       0.000040172799
166       0.000814788086
167      -0.001291363663
168      -0.000293242775
169      -0.000155458662
170      -0.000079857306
171      -0.000063741980
172       0.000201401361
173       0.007039132430
174       0.000264574826
175       0.000862971097
176       0.000409966265
177      -0.000057432410
178       0.000174161463
179       0.006972235938
180       0.000272585449
181      -0.000858705178
182       0.000409501049
183       0.000079977775
184      -0.001056058493
185      -0.005900880838
186       0.000036416953
187       0.000012797543
188      -0.000060290284
189      -0.000038957985
190       0.000336935378
191       0.002501507845
192       0.000015154274
193      -0.000030056109
194       0.000028898860
195       0.000069767829
196      -0.000618315719
197      -0.002839951465
198      -0.000033036693
199       0.000000223362
200       0.000047126659
201      -0.000039164750
202       0.000336763424
203       0.002499036517
204       0.000012980247
205       0.000031934096
206       0.000029235784
207       0.000075471693
208      -0.001045199759
209      -0.005817775499
210       0.000037457478
211      -0.000010620026
212      -0.000062209419
 Sym=     1a
 Ene= -1.01711102650638E+01
 Spin= Alpha
 Occup= 2.000000
  1       0.000027501428
  2       0.000023689564
  3       0.000144345999
  4      -0.000378009167
  5      -0.004459822996
  6      -0.000063139361
  7      -0.000005008138
  8       0.000029896762
  9       0.000304752447
 10       0.000015964006
 11      -0.000175978200
 12       0.000817668407
 13       0.000027947420
 14       0.000065256202
 15       0.000001403666
 16       0.000007362188
 17       0.000003328313
 18       0.000005171092
 19      -0.000001235578
 20      -0.000253907807
 21      -0.000348106054
 22       0.000125363099
 23      -0.001418257615
 24       0.010856633393
 25       0.000014091288
 26      -0.000010517683
 27      -0.000021582282
 28       0.000010930628
 29       0.000051718473
 30      -0.000176167684
 31       0.000459295903
 32       0.000137107751
 33       0.003070482798
 34       0.000013106788
 35      -0.000018436040
 36       0.000004524403
 37       0.000001693968
 38       0.000003933832
 39      -0.002482629745
 40      -0.003103822685
 41      -0.000554536772
 42      -0.000582804313
 43       0.015378268494
 44       0.000096574946
 45      -0.000011646101
 46      -0.000182704103
 47       0.000036839878
 48       0.000229147152
 49      -0.000415972037
 50      -0.002815021878
 51      -0.002857528283
 52       0.007174326374
 53       0.000015640836
 54       0.000047327423
 55       0.000057678118
 56       0.000088252791
 57      -0.000018937242
 58       0.030724749600
 59       0.040302536619
 60       0.001447084031
 61       0.002004730825
 62      -0.013220083250
 63       0.000013327367
 64       0.000173509963
 65      -0.000059354786
 66       0.000024541359
 67      -0.000695543380
 68       0.000092094268
 69      -0.000009300123
 70       0.006171265926
 71      -0.000805145528
 72      -0.000328314754
 73       0.000193881598
 74      -0.000006605001
 75      -0.000171442382
 76      -0.000010096473
 77       0.254252605317
 78       0.331835120657
 79       0.019969258550
 80      -0.014773577934
 81       0.024726068870
 82       0.000003325259
 83       0.000044807666
 84      -0.000009968713
 85      -0.000135865270
 86       0.001277328304
 87       0.000224754763
 88       0.000175000097
 89      -0.007611431319
 90       0.000379729359
 91       0.000104004183
 92      -0.000172520272
 93       0.000289330266
 94      -0.000168391475
 95      -0.000125917625
 96       0.095154427868
 97       0.124458525949
 98       0.006321687380
 99       0.001693487193
100      -0.032104252364
101      -0.000027961356
102      -0.000006795520
103       0.000065274719
104       0.000183695442
105      -0.000025945753
106      -0.000450995358
107      -0.002631467904
108       0.000015855660
109       0.006424781460
110       0.000395900485
111      -0.000118785015
112      -0.000128737246
113       0.000432724120
114       0.000067280010
115       0.375307371249
116       0.489747202133
117       0.029855809549
118      -0.022392380368
119       0.031439527567
120       0.000017650580
121       0.000048006997
122      -0.000049300893
123      -0.000237857207
124      -0.001767102162
125       0.000641844691
126       0.000460894193
127       0.010339050854
128      -0.001281059550
129       0.000074549024
130      -0.000209037288
131      -0.000350739278
132      -0.000334449531
133       0.000127688798
134       0.047209425132
135       0.061839308991
136       0.002651224184
137       0.002374275525
138      -0.022309416510
139       0.000017340855
140      -0.000149950339
141      -0.000052431679
142      -0.000020938399
143       0.000733846592
144       0.000131340500
145      -0.000325916438
146      -0.008445869929
147       0.000772395156
148      -0.000469889760
149       0.000263583997
150       0.000016244390
151      -0.000265060231
152      -0.000007245546
153      -0.000040225904
154       0.000157465240
155       0.000743422341
156      -0.000037059077
157      -0.000003241216
158      -0.000004749812
159       0.000004773456
160       0.000041549345
161       0.000492404477
162       0.000016799918
163       0.000023467873
164       0.000001089093
165      -0.000006918300
166       0.000083779782
167       0.000387091527
168       0.000010205120
169      -0.000019748293
170       0.000004228493
171       0.000079492595
172      -0.000502655507
173      -0.000092984839
174      -0.000005447655
175      -0.000003497326
176      -0.000019495715
177       0.000057976469
178      -0.000396419946
179      -0.000148099686
180      -0.000020241399
181       0.000011418068
182      -0.000000177598
183      -0.000092778482
184       0.000054528971
185      -0.001222178853
186       0.000032492361
187       0.000010996856
188      -0.000093564453
189      -0.000229931223
190       0.000263359174
191      -0.000598057442
192      -0.000138171079
193       0.000651794951
194       0.000287544804
195      -0.000254468904
196      -0.000232292783
197       0.000443127082
198      -0.000158895272
199       0.000028538717
200       0.000408933553
201      -0.000342563993
202       0.000510914089
203      -0.000193237891
204      -0.000179441484
205      -0.000965097504
206       0.000474019495
207      -0.000139643466
208       0.000001270417
209      -0.000835919358
210       0.000063778656
211      -0.000086132038
212      -0.000168740025
 Sym=     1a
 Ene= -1.01710383052506E+01
 Spin= Alpha
 Occup= 2.000000
  1      -0.000004766426
  2      -0.000004163764
  3      -0.000023587512
  4       0.000057673448
  5       0.000832179815
  6       0.000011453724
  7      -0.000025017845
  8      -0.000004834317
  9      -0.000054418439
 10       0.000055827170
 11       0.000026687675
 12      -0.000161741405
 13       0.000063185276
 14      -0.000010766897
 15      -0.000000471981
 16      -0.000001329282
 17       0.000013791555
 18      -0.000000556152
 19      -0.000007965833
 20       0.000037691765
 21       0.000052239557
 22      -0.000024539761
 23       0.000263678082
 24      -0.001989595872
 25      -0.000001972034
 26      -0.000051959940
 27       0.000004094870
 28      -0.000006379478
 29       0.000276252371
 30       0.000031410942
 31      -0.000115651862
 32       0.000890240426
 33      -0.000577523797
 34      -0.000002844120
 35       0.000003479456
 36       0.000020861411
 37      -0.000000319635
 38       0.000020433795
 39       0.000470053599
 40       0.000587559696
 41       0.000106164372
 42       0.000105427694
 43      -0.002933513683
 44      -0.000016944992
 45      -0.000060170177
 46       0.000034937508
 47      -0.000030309608
 48       0.001216346415
 49       0.000068961830
 50       0.000806179480
 51      -0.015083969910
 52      -0.001213797883
 53      -0.000007632445
 54      -0.000013227062
 55       0.000300168251
 56      -0.000015059078
 57      -0.000119526747
 58      -0.051925281646
 59      -0.067869118720
 60      -0.003636482877
 61      -0.001378739767
 62       0.027703100303
 63       0.000001060757
 64       0.000033617912
 65      -0.000002549860
 66       0.000050260201
 67       0.000223458636
 68      -0.000157959718
 69       0.001559719460
 70      -0.007404091938
 71      -0.003493218400
 72       0.000449066944
 73      -0.000228827950
 74       0.000051743175
 75       0.000290856350
 76      -0.000007152981
 77      -0.380388503548
 78      -0.496238162435
 79      -0.030912933637
 80       0.023693760718
 81      -0.023357434292
 82      -0.000044019658
 83       0.000247431717
 84       0.000106750792
 85       0.000472645718
 86      -0.001583108513
 87      -0.001106473517
 88      -0.001892996943
 89       0.008904737944
 90       0.004254581041
 91       0.000089559463
 92       0.000158407314
 93      -0.000192913726
 94       0.000477263577
 95       0.000100848458
 96      -0.018678869869