[Molden Format]
[Title]
 Molden file created by orca_2mkl for BaseName=./PXL

[Atoms] AU
C    1   6          1.9276753791         1.8896265002         0.0091774424 
C    2   6         -0.9228741165         1.8953691608         0.0012770530 
C    3   6         -2.3067331338         1.8919383522         2.2411114162 
C    4   6         -4.9405093495         1.8806223088         2.2178318230 
C    5   6         -6.2843191382         1.8743639531        -0.0462213253 
C    6   6         -9.1345705182         1.8755937858        -0.0892670189 
C    7   6         -4.8948362171         1.8784528011        -2.2958950980 
C    8   6         -2.2722216223         1.8896320092        -2.2726800682 
H    9   1          2.6710497571         2.0619045854         1.9244244613 
H   10   1          2.6867578886         3.4538744025        -1.1065996654 
H   11   1          2.6769949158         0.1415939273        -0.8008017912 
H   12   1         -1.3195125281         1.8980180064         4.0376594067 
H   13   1         -5.9594114527         1.8778572400         3.9966050949 
H   14   1         -9.9120602924         1.7588231263         1.8165940102 
H   15   1         -9.8715506969         0.2768567744        -1.1708348377 
H   16   1         -9.8715598159         3.5967740595        -0.9648843528 
H   17   1         -5.8838557553         1.8740100166        -4.0924325088 
H   18   1         -1.2514231247         1.8939347375        -4.0513503793 
[GTO]
  1 0
s   6 1.0 
    13575.3496820000         0.5435951735
     2035.2333680000         1.0145521571
      463.2256235900         1.7315729053
      131.2001959800         2.6910372890
       42.8530158900         3.6044547339
       15.5841857700         3.7025557541
s   2 1.0 
        6.2067138500         1.8383540665
        2.5764896500         0.5447575690
s   1 1.0 
        0.5769633900         0.4718145012
s   1 1.0 
        0.2297283100         0.2364944648
s   1 1.0 
        0.0951644400         0.1221141848
p   4 1.0 
       34.6972322400         1.3596662229
        7.9582622800         1.4512589862
        2.3780826900         1.2709231150
        0.8143320800         0.8025721212
p   1 1.0 
        0.2888754700         0.3018758836
p   1 1.0 
        0.1005682400         0.0807265050
d   1 1.0 
        0.8000000000         1.9292013661

  2 0
s   6 1.0 
    13575.3496820000         0.5435951735
     2035.2333680000         1.0145521571
      463.2256235900         1.7315729053
      131.2001959800         2.6910372890
       42.8530158900         3.6044547339
       15.5841857700         3.7025557541
s   2 1.0 
        6.2067138500         1.8383540665
        2.5764896500         0.5447575690
s   1 1.0 
        0.5769633900         0.4718145012
s   1 1.0 
        0.2297283100         0.2364944648
s   1 1.0 
        0.0951644400         0.1221141848
p   4 1.0 
       34.6972322400         1.3596662229
        7.9582622800         1.4512589862
        2.3780826900         1.2709231150
        0.8143320800         0.8025721212
p   1 1.0 
        0.2888754700         0.3018758836
p   1 1.0 
        0.1005682400         0.0807265050
d   1 1.0 
        0.8000000000         1.9292013661

  3 0
s   6 1.0 
    13575.3496820000         0.5435951735
     2035.2333680000         1.0145521571
      463.2256235900         1.7315729053
      131.2001959800         2.6910372890
       42.8530158900         3.6044547339
       15.5841857700         3.7025557541
s   2 1.0 
        6.2067138500         1.8383540665
        2.5764896500         0.5447575690
s   1 1.0 
        0.5769633900         0.4718145012
s   1 1.0 
        0.2297283100         0.2364944648
s   1 1.0 
        0.0951644400         0.1221141848
p   4 1.0 
       34.6972322400         1.3596662229
        7.9582622800         1.4512589862
        2.3780826900         1.2709231150
        0.8143320800         0.8025721212
p   1 1.0 
        0.2888754700         0.3018758836
p   1 1.0 
        0.1005682400         0.0807265050
d   1 1.0 
        0.8000000000         1.9292013661

  4 0
s   6 1.0 
    13575.3496820000         0.5435951735
     2035.2333680000         1.0145521571
      463.2256235900         1.7315729053
      131.2001959800         2.6910372890
       42.8530158900         3.6044547339
       15.5841857700         3.7025557541
s   2 1.0 
        6.2067138500         1.8383540665
        2.5764896500         0.5447575690
s   1 1.0 
        0.5769633900         0.4718145012
s   1 1.0 
        0.2297283100         0.2364944648
s   1 1.0 
        0.0951644400         0.1221141848
p   4 1.0 
       34.6972322400         1.3596662229
        7.9582622800         1.4512589862
        2.3780826900         1.2709231150
        0.8143320800         0.8025721212
p   1 1.0 
        0.2888754700         0.3018758836
p   1 1.0 
        0.1005682400         0.0807265050
d   1 1.0 
        0.8000000000         1.9292013661

  5 0
s   6 1.0 
    13575.3496820000         0.5435951735
     2035.2333680000         1.0145521571
      463.2256235900         1.7315729053
      131.2001959800         2.6910372890
       42.8530158900         3.6044547339
       15.5841857700         3.7025557541
s   2 1.0 
        6.2067138500         1.8383540665
        2.5764896500         0.5447575690
s   1 1.0 
        0.5769633900         0.4718145012
s   1 1.0 
        0.2297283100         0.2364944648
s   1 1.0 
        0.0951644400         0.1221141848
p   4 1.0 
       34.6972322400         1.3596662229
        7.9582622800         1.4512589862
        2.3780826900         1.2709231150
        0.8143320800         0.8025721212
p   1 1.0 
        0.2888754700         0.3018758836
p   1 1.0 
        0.1005682400         0.0807265050
d   1 1.0 
        0.8000000000         1.9292013661

  6 0
s   6 1.0 
    13575.3496820000         0.5435951735
     2035.2333680000         1.0145521571
      463.2256235900         1.7315729053
      131.2001959800         2.6910372890
       42.8530158900         3.6044547339
       15.5841857700         3.7025557541
s   2 1.0 
        6.2067138500         1.8383540665
        2.5764896500         0.5447575690
s   1 1.0 
        0.5769633900         0.4718145012
s   1 1.0 
        0.2297283100         0.2364944648
s   1 1.0 
        0.0951644400         0.1221141848
p   4 1.0 
       34.6972322400         1.3596662229
        7.9582622800         1.4512589862
        2.3780826900         1.2709231150
        0.8143320800         0.8025721212
p   1 1.0 
        0.2888754700         0.3018758836
p   1 1.0 
        0.1005682400         0.0807265050
d   1 1.0 
        0.8000000000         1.9292013661

  7 0
s   6 1.0 
    13575.3496820000         0.5435951735
     2035.2333680000         1.0145521571
      463.2256235900         1.7315729053
      131.2001959800         2.6910372890
       42.8530158900         3.6044547339
       15.5841857700         3.7025557541
s   2 1.0 
        6.2067138500         1.8383540665
        2.5764896500         0.5447575690
s   1 1.0 
        0.5769633900         0.4718145012
s   1 1.0 
        0.2297283100         0.2364944648
s   1 1.0 
        0.0951644400         0.1221141848
p   4 1.0 
       34.6972322400         1.3596662229
        7.9582622800         1.4512589862
        2.3780826900         1.2709231150
        0.8143320800         0.8025721212
p   1 1.0 
        0.2888754700         0.3018758836
p   1 1.0 
        0.1005682400         0.0807265050
d   1 1.0 
        0.8000000000         1.9292013661

  8 0
s   6 1.0 
    13575.3496820000         0.5435951735
     2035.2333680000         1.0145521571
      463.2256235900         1.7315729053
      131.2001959800         2.6910372890
       42.8530158900         3.6044547339
       15.5841857700         3.7025557541
s   2 1.0 
        6.2067138500         1.8383540665
        2.5764896500         0.5447575690
s   1 1.0 
        0.5769633900         0.4718145012
s   1 1.0 
        0.2297283100         0.2364944648
s   1 1.0 
        0.0951644400         0.1221141848
p   4 1.0 
       34.6972322400         1.3596662229
        7.9582622800         1.4512589862
        2.3780826900         1.2709231150
        0.8143320800         0.8025721212
p   1 1.0 
        0.2888754700         0.3018758836
p   1 1.0 
        0.1005682400         0.0807265050
d   1 1.0 
        0.8000000000         1.9292013661

  9 0
s   3 1.0 
       34.0613410000         0.2556300129
        5.1235746000         0.4613599287
        1.1646626000         0.6811215012
s   1 1.0 
        0.3272304100         0.3083545312
s   1 1.0 
        0.1030724100         0.1296483265
p   1 1.0 
        0.8000000000         1.0784563492

 10 0
s   3 1.0 
       34.0613410000         0.2556300129
        5.1235746000         0.4613599287
        1.1646626000         0.6811215012
s   1 1.0 
        0.3272304100         0.3083545312
s   1 1.0 
        0.1030724100         0.1296483265
p   1 1.0 
        0.8000000000         1.0784563492

 11 0
s   3 1.0 
       34.0613410000         0.2556300129
        5.1235746000         0.4613599287
        1.1646626000         0.6811215012
s   1 1.0 
        0.3272304100         0.3083545312
s   1 1.0 
        0.1030724100         0.1296483265
p   1 1.0 
        0.8000000000         1.0784563492

 12 0
s   3 1.0 
       34.0613410000         0.2556300129
        5.1235746000         0.4613599287
        1.1646626000         0.6811215012
s   1 1.0 
        0.3272304100         0.3083545312
s   1 1.0 
        0.1030724100         0.1296483265
p   1 1.0 
        0.8000000000         1.0784563492

 13 0
s   3 1.0 
       34.0613410000         0.2556300129
        5.1235746000         0.4613599287
        1.1646626000         0.6811215012
s   1 1.0 
        0.3272304100         0.3083545312
s   1 1.0 
        0.1030724100         0.1296483265
p   1 1.0 
        0.8000000000         1.0784563492

 14 0
s   3 1.0 
       34.0613410000         0.2556300129
        5.1235746000         0.4613599287
        1.1646626000         0.6811215012
s   1 1.0 
        0.3272304100         0.3083545312
s   1 1.0 
        0.1030724100         0.1296483265
p   1 1.0 
        0.8000000000         1.0784563492

 15 0
s   3 1.0 
       34.0613410000         0.2556300129
        5.1235746000         0.4613599287
        1.1646626000         0.6811215012
s   1 1.0 
        0.3272304100         0.3083545312
s   1 1.0 
        0.1030724100         0.1296483265
p   1 1.0 
        0.8000000000         1.0784563492

 16 0
s   3 1.0 
       34.0613410000         0.2556300129
        5.1235746000         0.4613599287
        1.1646626000         0.6811215012
s   1 1.0 
        0.3272304100         0.3083545312
s   1 1.0 
        0.1030724100         0.1296483265
p   1 1.0 
        0.8000000000         1.0784563492

 17 0
s   3 1.0 
       34.0613410000         0.2556300129
        5.1235746000         0.4613599287
        1.1646626000         0.6811215012
s   1 1.0 
        0.3272304100         0.3083545312
s   1 1.0 
        0.1030724100         0.1296483265
p   1 1.0 
        0.8000000000         1.0784563492

 18 0
s   3 1.0 
       34.0613410000         0.2556300129
        5.1235746000         0.4613599287
        1.1646626000         0.6811215012
s   1 1.0 
        0.3272304100         0.3083545312
s   1 1.0 
        0.1030724100         0.1296483265
p   1 1.0 
        0.8000000000         1.0784563492

[5D]
[7F]
[9G]
[MO]
 Sym=     1a
 Ene= -1.01759458257076E+01
 Spin= Alpha
 Occup= 2.000000
  1      -0.003263205195
  2      -0.004348166808
  3       0.000582887675
  4      -0.004872826920
  5       0.005101831773
  6      -0.000017379201
  7       0.000004822347
  8       0.000024845065
  9       0.001268777269
 10      -0.000029522894
 11      -0.000154482572
 12      -0.002792419615
 13       0.000071288264
 14       0.000252657412
 15      -0.000151812826
 16      -0.000006337171
 17      -0.000000797483
 18       0.000246118081
 19      -0.000002830989
 20      -0.328653030447
 21      -0.428702535893
 22      -0.027324771001
 23       0.023716849527
 24      -0.055130374180
 25       0.000004995643
 26       0.000005688639
 27       0.000010292299
 28       0.000873520329
 29      -0.000011479402
 30      -0.000002056903
 31       0.014320895250
 32       0.000069166627
 33       0.000817718855
 34      -0.000238575330
 35       0.000014037832
 36      -0.000000406894
 37      -0.000058974324
 38      -0.000001155101
 39      -0.008689951892
 40      -0.011453129684
 41      -0.000159647084
 42      -0.003762777912
 43       0.050718538832
 44       0.000108411105
 45       0.000000380045
 46       0.000060795026
 47      -0.000411800564
 48       0.000000286802
 49      -0.000551500231
 50      -0.011067235647
 51      -0.000064942385
 52      -0.010031058289
 53       0.000279287536
 54      -0.000576625498
 55      -0.000002534285
 56      -0.000021584158
 57      -0.000000393060
 58       0.008756417929
 59       0.011541457097
 60       0.000157068678
 61       0.003790981420
 62      -0.050809593951
 63       0.000109237003
 64       0.000000499165
 65      -0.000058049965
 66      -0.000425155933
 67      -0.000000257012
 68       0.000542008672
 69      -0.011247277088
 70      -0.000045263775
 71       0.009868010934
 72      -0.000297902982
 73      -0.000569998695
 74      -0.000002733352
 75       0.000031696622
 76      -0.000000410297
 77       0.330862826182
 78       0.431585795143
 79       0.027505170391
 80      -0.023871601926
 81       0.055354371626
 82       0.000004468584
 83       0.000004426713
 84      -0.000010234232
 85       0.000876993995
 86      -0.000007195407
 87       0.000016425296
 88       0.014388852211
 89       0.000063299585
 90      -0.000561879893
 91       0.000240271237
 92       0.000007733702
 93       0.000000136863
 94       0.000058708873
 95       0.000001062890
 96       0.003284521659
 97       0.004376513362
 98      -0.000586196112
 99       0.004899720355
100      -0.005110668524
101      -0.000017232987
102       0.000003333708
103      -0.000025914341
104       0.001274121331
105      -0.000019234829
106       0.000181721292
107      -0.002795354796
108       0.000047329692
109      -0.000316023742
110       0.000152535324
111      -0.000015712694
112      -0.000000549017
113      -0.000247454897
114       0.000001531744
115       0.008824728906
116       0.011618720671
117       0.000244883658
118       0.003515504445
119      -0.049455980312
120       0.000095347462
121       0.000000657783
122       0.000073491204
123      -0.000373661086
124      -0.000001179325
125      -0.000553336889
126      -0.009322275703
127      -0.000046865609
128      -0.010073218750
129      -0.000277546145
130       0.000574245418
131       0.000002213489
132       0.000022495609
133       0.000000176535
134      -0.008771065349
135      -0.011547311525
136      -0.000246586295
137      -0.003493193959
138       0.049366178068
139       0.000097104967
140       0.000000548830
141      -0.000072540310
142      -0.000380942096
143      -0.000000179231
144       0.000548230473
145      -0.009501258111
146      -0.000045455511
147       0.009875912262
148       0.000293887638
149       0.000562205086
150       0.000002948667
151      -0.000032793980
152       0.000000050372
153       0.000103453703
154       0.000281730055
155       0.000037410992
156      -0.000112276760
157      -0.000015675639
158      -0.000133064673
159       0.000111237476
160       0.000147259187
161       0.000446815264
162      -0.000107467130
163      -0.000093795270
164       0.000073146176
165       0.000113651642
166       0.000132162406
167       0.000547361370
168      -0.000112723287
169       0.000101966432
170       0.000056134747
171       0.000074243506
172       0.001031797109
173       0.000355825316
174      -0.000016434803
175      -0.000000175134
176      -0.000357179139
177      -0.000074851297
178      -0.001036768597
179      -0.000358887657
180      -0.000023011074
181       0.000000368127
182       0.000358222846
183      -0.000103949568
184      -0.000286029630
185      -0.000029857814
186      -0.000115461803
187      -0.000010848440
188       0.000132558415
189      -0.000112137858
190      -0.000146697739
191      -0.000469644033
192      -0.000107569376
193      -0.000095937173
194      -0.000073006651
195      -0.000113737627
196      -0.000136643181
197      -0.000539814082
198      -0.000111611039
199       0.000101199775
200      -0.000061574969
201      -0.000076100252
202      -0.000964001129
203      -0.000123722953
204      -0.000023306452
205      -0.000000198466
206      -0.000348271996
207       0.000075617116
208       0.000960349728
209       0.000122361745
210      -0.000029356286
211      -0.000000090675
212       0.000346589122
 Sym=     1a
 Ene= -1.01759311201811E+01
 Spin= Alpha
 Occup= 2.000000
  1      -0.003317903695
  2      -0.004409465443
  3       0.000473086374
  4      -0.003929402372
  5       0.001830251788
  6      -0.000040655889
  7       0.000011459826
  8       0.000041094944
  9       0.001217476885
 10      -0.000052886857
 11      -0.000186084614
 12      -0.001332543508
 13       0.000296846183
 14       0.001296464606
 15      -0.000140818401
 16      -0.000007136626
 17       0.000000083995
 18       0.000238177696
 19      -0.000004144783
 20      -0.330843173960
 21      -0.431666989333
 22      -0.027054740810
 23       0.023362106251
 24      -0.033990368713
 25      -0.000108543161
 26       0.000006045998
 27       0.000007406734
 28       0.000552916449
 29      -0.000015691010
 30       0.000019310910
 31       0.007652605029
 32      -0.000015666789
 33      -0.000391339088
 34      -0.000194466462
 35       0.000010633912
 36      -0.000000076920
 37       0.000008082225
 38      -0.000002784193
 39      -0.008857383586
 40      -0.011787394519
 41       0.000372704421
 42      -0.003895249032
 43       0.014012740617
 44      -0.000043779618
 45      -0.000001935658
 46      -0.000120374201
 47      -0.000474288806
 48       0.000009225595
 49       0.000311788261
 50       0.000093278517
 51      -0.000018174752
 52      -0.004811116117
 53       0.000154914308
 54      -0.000404307001
 55      -0.000003019679
 56       0.000024396020
 57      -0.000001131712
 58      -0.008805488124
 59      -0.011718992451
 60       0.000373854003
 61      -0.003871233129
 62       0.013707523921
 63       0.000046348668
 64       0.000001671166
 65      -0.000120149027
 66       0.000468488591
 67      -0.000007979244
 68       0.000324384268
 69      -0.000055452204
 70       0.000015089542
 71      -0.004761504420
 72       0.000165138148
 73       0.000395834755
 74       0.000002571034
 75       0.000017553571
 76      -0.000000472867
 77      -0.328633190965
 78      -0.428784263691
 79      -0.026870775258
 80       0.023201312419
 81      -0.033610074632
 82       0.000108565581
 83      -0.000004601693
 84       0.000009326070
 85      -0.000548142187
 86       0.000011320104
 87       0.000010672724
 88      -0.007553712715
 89      -0.000005095805
 90      -0.000526980043
 91      -0.000193048651
 92      -0.000004337314
 93      -0.000000222558
 94       0.000008620685
 95      -0.000001757815
 96      -0.003294845341
 97      -0.004378704624
 98       0.000469081096
 99      -0.003895272496
100       0.001773246086
101       0.000039884760
102      -0.000008067360
103       0.000042631848
104      -0.001205347155
105       0.000036286885
106      -0.000211599539
107       0.001283943293
108      -0.000203958781
109       0.001351022550
110      -0.000139534732
111       0.000015818081
112      -0.000000120679
113       0.000236318092
114      -0.000002434676
115      -0.008922865808
116      -0.011857453465
117       0.000270037293
118      -0.003631849032
119       0.013137344928
120       0.000050547974
121       0.000002275508
122       0.000114626956
123       0.000492764449
124      -0.000010646452
125      -0.000307180611
126      -0.000563715358
127       0.000029700912
128       0.004402318561
129       0.000151554813
130      -0.000400150198
131      -0.000002207025
132       0.000026116897
133      -0.000000999453
134      -0.008986764635
135      -0.011941685766
136       0.000269963427
137      -0.003664138144
138       0.013571248039
139      -0.000051900491
140      -0.000002416048
141       0.000113260831
142      -0.000488685713
143       0.000011753788
144      -0.000312714242
145       0.000363130872
146      -0.000025118848
147       0.004484017983
148       0.000165740226
149       0.000399419034
150       0.000003149301
151       0.000018593090
152      -0.000001043809
153       0.000089434975
154       0.000407384955
155      -0.000817964809
156      -0.000077873841
157      -0.000012095710
158      -0.000140456546
159       0.000063534196
160       0.000440347944
161       0.000793282265
162      -0.000116470700
163      -0.000104332275
164       0.000066667806
165       0.000059157149
166       0.000437991905
167       0.001127086288
168      -0.000131417744
169       0.000109638365
170       0.000043207542
171       0.000096070708
172       0.000591212904
173       0.000194679535
174      -0.000028818889
175      -0.000000806607
176      -0.000181328235
177       0.000095410442
178       0.000586411626
179       0.000203856964
180       0.000031705718
181      -0.000000062035
182      -0.000178737595
183       0.000088769803
184       0.000406461658
185      -0.000832714638
186       0.000079800856
187       0.000008275136
188      -0.000138689080
189       0.000061864210
190       0.000440726927
191       0.000851368330
192       0.000117033161
193       0.000105472416
194       0.000064304806
195       0.000058409163
196       0.000440207133
197       0.001080910623
198       0.000127616937
199      -0.000108270684
200       0.000048739913
201       0.000090529278
202       0.000528339236
203       0.000058390696
204       0.000026491652
205       0.000000307062
206       0.000185250617
207       0.000090954751
208       0.000536552887
209       0.000062726288
210      -0.000029693726
211      -0.000001119343
212       0.000187332433
 Sym=     1a
 Ene= -1.01664088965665E+01
 Spin= Alpha
 Occup= 2.000000
  1      -0.000799933241
  2      -0.001042781511
  3      -0.000024382909
  4      -0.000833267888
  5       0.011848522753
  6       0.000131275815
  7      -0.000002054984
  8      -0.000022134022
  9      -0.000102219977
 10       0.000002811134
 11       0.000146633193
 12      -0.002525533940
 13       0.000038489384
 14       0.000971418726
 15       0.000008604648
 16      -0.000056830504
 17      -0.000011176954
 18      -0.000042847191
 19       0.000000006421
 20      -0.008725004818
 21      -0.011188141991
 22      -0.001439026202
 23       0.003799139125
 24      -0.014780883774
 25       0.000108484017
 26      -0.000003127065
 27      -0.000104951026
 28      -0.000375739323
 29       0.000016181574
 30       0.000766194039
 31      -0.003124811932
 32      -0.000092223253
 33      -0.010307091915
 34      -0.000258435898
 35      -0.000493766641
 36      -0.000001394454
 37      -0.000059307153
 38      -0.000000646359
 39      -0.013814499099
 40      -0.017901757402
 41      -0.001774991710
 42       0.001530262924
 43       0.011727199414
 44       0.000023252930
 45       0.000003054212
 46       0.000193393782
 47      -0.000238185760
 48      -0.000016367288
 49       0.000107083593
 50       0.005688553932
 51       0.000111446068
 52      -0.000451570812
 53      -0.000100300875
 54       0.000054126705
 55       0.000000265231
 56       0.000034367886
 57       0.000001326007
 58      -0.013895144027
 59      -0.018006581224
 60      -0.001785007147
 61       0.001554742494
 62       0.011618686385
 63      -0.000026522978
 64      -0.000002506854
 65       0.000192707583
 66       0.000232912396
 67       0.000014605604
 68       0.000106409857
 69      -0.005737769251
 70      -0.000106471022
 71      -0.000551072452
 72      -0.000101245668
 73      -0.000049881452
 74      -0.000000493337
 75       0.000034468543
 76       0.000000997532
 77      -0.008622685181
 78      -0.011055959124
 79      -0.001424191111
 80       0.003742691431
 81      -0.014480113714
 82      -0.000107523719
 83       0.000002281520
 84      -0.000106874698
 85       0.000354359413
 86      -0.000012121027
 87       0.000779483491
 88       0.003386212848
 89       0.000074314257
 90      -0.010374617128
 91      -0.000240165677
 92       0.000497510159
 93       0.000001244866
 94      -0.000068210391
 95      -0.000000377305
 96      -0.000781180280
 97      -0.001019021929
 98      -0.000020431390
 99      -0.000840494837
100       0.011905399132
101      -0.000130421739
102       0.000001602109
103      -0.000025657133
104       0.000099054788
105      -0.000003419564
106       0.000153222921
107       0.002517146721
108      -0.000022392059
109       0.001010531087
110       0.000009585489
111       0.000055348921
112       0.000007675618
113      -0.000044211987
114      -0.000000120122
115       0.327797788949
116       0.427779216403
117       0.026023979322
118      -0.017085188963
119       0.000175818758
120       0.000042481409
121      -0.000000162136
122       0.000096401890
123      -0.000578070713
124       0.000005126571
125      -0.001166949618
126       0.004279761450
127      -0.000045762580
128       0.000575142707
129       0.000650191105
130       0.000193255258
131       0.000001643250
132      -0.000066805543
133      -0.000000225323
134       0.331276684963
135       0.432316318337
136       0.026310360312
137      -0.017343018919
138       0.000639869043
139      -0.000045532113
140       0.000000137536
141       0.000097416377
142       0.000610756338
143      -0.000005957627
144      -0.001178910656
145      -0.004229909104
146       0.000050118085
147       0.000667563345
148       0.000643339836
149      -0.000215963244
150      -0.000001287900
151      -0.000056042091
152       0.000000189450
153       0.000032819709
154      -0.000206734930
155      -0.001640208232
156      -0.000039448322
157       0.000008442319
158       0.000018224727
159       0.000115370813
160      -0.000640270467
161      -0.000974358991
162       0.000104486260
163       0.000036582867
164       0.000010868743
165       0.000114998680
166      -0.000593743559
167      -0.001015604987
168       0.000091520146
169      -0.000043317698
170       0.000030396568
171       0.000043285380
172      -0.000317238041
173      -0.002150453594
174      -0.000056216136
175      -0.000001507864
176      -0.000071472551
177       0.000043254600
178      -0.000318044951
179      -0.002144004256
180       0.000057433935
181       0.000002066268
182      -0.000070523322
183       0.000032840868
184      -0.000210088939
185      -0.001643635251
186       0.000038624647
187      -0.000005640026
188       0.000020569480
189       0.000116894378
190      -0.000641187787
191      -0.000989212501
192      -0.000103341510
193      -0.000038482156
194       0.000011831207
195       0.000116945424
196      -0.000609847679
197      -0.001019236266
198      -0.000095085698
199       0.000042528698
200       0.000025359971
201      -0.000330825820
202       0.000292046835
203       0.000028976655
204      -0.000574654071
205      -0.000000900866
206      -0.000889842936
207      -0.000332388620
208       0.000296068775
209       0.000021487267
210       0.000593668988
211       0.000000918003
212      -0.000888421154
 Sym=     1a
 Ene= -1.01658677719474E+01
 Spin= Alpha
 Occup= 2.000000
  1       0.001742412267
  2       0.002233063056
  3       0.000246820266
  4       0.000336823567
  5      -0.004534473173
  6      -0.000094751908
  7       0.000002229049
  8       0.000000020486
  9       0.000048075005
 10      -0.000006350497
 11       0.000064198235
 12       0.001566386466
 13       0.000011873828
 14       0.000921300926
 15      -0.000059656353
 16      -0.000045462450
 17      -0.000010408404
 18      -0.000037943480
 19       0.000000133159
 20       0.009267913817
 21       0.011863447889
 22       0.001619164045
 23      -0.003981977446
 24       0.011899136663
 25      -0.000109409759
 26      -0.000000835367
 27      -0.000079206794
 28       0.000235024022
 29       0.000002613515
 30       0.000694115047
 31       0.000805708996
 32      -0.000013276083
 33      -0.008314538787
 34       0.000282557204
 35      -0.000470224299
 36      -0.000000663860
 37       0.000063683427
 38       0.000000397125
 39      -0.327268757643
 40      -0.427112407484
 41      -0.025766813903
 42       0.016623968438
 43      -0.002166673159
 44       0.000055464450
 45       0.000001958800
 46       0.000070395064
 47      -0.000536363353
 48      -0.000006210338
 49      -0.001003446033
 50       0.003575267068
 51       0.000024833546
 52       0.001144459273
 53      -0.000670991488
 54      -0.000173443370
 55      -0.000002063803
 56       0.000056595449
 57       0.000000249609
 58      -0.331775863417
 59      -0.432990092891
 60      -0.026140126523
 61       0.016955245494
 62      -0.002765827106
 63      -0.000057677171
 64      -0.000001631263
 65       0.000071733571
 66       0.000568878408
 67       0.000004093979
 68      -0.001010964256
 69      -0.003748546669
 70      -0.000022819058
 71       0.001188870258
 72      -0.000665107369
 73       0.000195583985
 74       0.000000212977
 75       0.000044943057
 76       0.000000684319
 77       0.009322162384
 78       0.011933352981
 79       0.001628204591
 80      -0.004012772282
 81       0.011992648607
 82       0.000110385643
 83       0.000000789003
 84      -0.000079056509
 85      -0.000250262635
 86      -0.000002076495
 87       0.000687499545
 88      -0.000529379037
 89       0.000002765127
 90      -0.008375346860
 91       0.000298910043
 92       0.000468631453
 93       0.000001640139
 94       0.000055150140
 95       0.000000889376
 96       0.001759982805