 Generated by Multiwfn
GAUSSIAN             29 MOL ORBITALS    360 PRIMITIVES       18 NUCLEI
  C    1    (CENTRE  1)   1.90793668  1.89134124  0.01420688  CHARGE =  6.0
  C    2    (CENTRE  2)  -0.94369670  1.87991292  0.01199916  CHARGE =  6.0
  C    3    (CENTRE  3)  -2.31056500  1.88863930  2.26894306  CHARGE =  6.0
  C    4    (CENTRE  4)  -4.93838909  1.89622561  2.23540732  CHARGE =  6.0
  C    5    (CENTRE  5)  -6.23582539  1.89481855 -0.05009054  CHARGE =  6.0
  C    6    (CENTRE  6)  -4.91895817  1.88535874 -2.33650831  CHARGE =  6.0
  C    7    (CENTRE  7)  -6.29709521  1.90138305 -4.83279923  CHARGE =  6.0
  C    8    (CENTRE  8)  -2.28132530  1.87510659 -2.26245141  CHARGE =  6.0
  H    9    (CENTRE  9)   2.65646919  1.66806609  1.92202197  CHARGE =  1.0
  H   10    (CENTRE 10)   2.64926415  3.66422839 -0.74773845  CHARGE =  1.0
  H   11    (CENTRE 11)   2.66761750  0.36219818 -1.14802152  CHARGE =  1.0
  H   12    (CENTRE 12)  -1.31312874  1.88545955  4.05894731  CHARGE =  1.0
  H   13    (CENTRE 13)  -5.98013976  1.89796462  3.99893282  CHARGE =  1.0
  H   14    (CENTRE 14)  -8.28495194  1.89644441 -0.06027080  CHARGE =  1.0
  H   15    (CENTRE 15)  -8.33119416  1.69739187 -4.56687820  CHARGE =  1.0
  H   16    (CENTRE 16)  -5.65970800  0.36266025 -6.05457632  CHARGE =  1.0
  H   17    (CENTRE 17)  -5.97224132  3.66815561 -5.85565222  CHARGE =  1.0
  H   18    (CENTRE 18)  -1.23691360  1.86018665 -4.03008483  CHARGE =  1.0
CENTRE ASSIGNMENTS    1  1  1  1  1  1  1  1  1  1  1  1  1  1  1  1  1  1  1  1
CENTRE ASSIGNMENTS    1  1  1  1  1  1  1  1  1  1  1  1  1  1  1  2  2  2  2  2
CENTRE ASSIGNMENTS    2  2  2  2  2  2  2  2  2  2  2  2  2  2  2  2  2  2  2  2
CENTRE ASSIGNMENTS    2  2  2  2  2  2  2  2  2  2  3  3  3  3  3  3  3  3  3  3
CENTRE ASSIGNMENTS    3  3  3  3  3  3  3  3  3  3  3  3  3  3  3  3  3  3  3  3
CENTRE ASSIGNMENTS    3  3  3  3  3  4  4  4  4  4  4  4  4  4  4  4  4  4  4  4
CENTRE ASSIGNMENTS    4  4  4  4  4  4  4  4  4  4  4  4  4  4  4  4  4  4  4  4
CENTRE ASSIGNMENTS    5  5  5  5  5  5  5  5  5  5  5  5  5  5  5  5  5  5  5  5
CENTRE ASSIGNMENTS    5  5  5  5  5  5  5  5  5  5  5  5  5  5  5  6  6  6  6  6
CENTRE ASSIGNMENTS    6  6  6  6  6  6  6  6  6  6  6  6  6  6  6  6  6  6  6  6
CENTRE ASSIGNMENTS    6  6  6  6  6  6  6  6  6  6  7  7  7  7  7  7  7  7  7  7
CENTRE ASSIGNMENTS    7  7  7  7  7  7  7  7  7  7  7  7  7  7  7  7  7  7  7  7
CENTRE ASSIGNMENTS    7  7  7  7  7  8  8  8  8  8  8  8  8  8  8  8  8  8  8  8
CENTRE ASSIGNMENTS    8  8  8  8  8  8  8  8  8  8  8  8  8  8  8  8  8  8  8  8
CENTRE ASSIGNMENTS    9  9  9  9  9  9  9  9 10 10 10 10 10 10 10 10 11 11 11 11
CENTRE ASSIGNMENTS   11 11 11 11 12 12 12 12 12 12 12 12 13 13 13 13 13 13 13 13
CENTRE ASSIGNMENTS   14 14 14 14 14 14 14 14 15 15 15 15 15 15 15 15 16 16 16 16
CENTRE ASSIGNMENTS   16 16 16 16 17 17 17 17 17 17 17 17 18 18 18 18 18 18 18 18
TYPE ASSIGNMENTS      1  1  1  1  1  1  1  1  1  1  1  2  2  2  2  3  3  3  3  4
TYPE ASSIGNMENTS      4  4  4  2  3  4  2  3  4  5  6  7  8  9 10  1  1  1  1  1
TYPE ASSIGNMENTS      1  1  1  1  1  1  2  2  2  2  3  3  3  3  4  4  4  4  2  3
TYPE ASSIGNMENTS      4  2  3  4  5  6  7  8  9 10  1  1  1  1  1  1  1  1  1  1
TYPE ASSIGNMENTS      1  2  2  2  2  3  3  3  3  4  4  4  4  2  3  4  2  3  4  5
TYPE ASSIGNMENTS      6  7  8  9 10  1  1  1  1  1  1  1  1  1  1  1  2  2  2  2
TYPE ASSIGNMENTS      3  3  3  3  4  4  4  4  2  3  4  2  3  4  5  6  7  8  9 10
TYPE ASSIGNMENTS      1  1  1  1  1  1  1  1  1  1  1  2  2  2  2  3  3  3  3  4
TYPE ASSIGNMENTS      4  4  4  2  3  4  2  3  4  5  6  7  8  9 10  1  1  1  1  1
TYPE ASSIGNMENTS      1  1  1  1  1  1  2  2  2  2  3  3  3  3  4  4  4  4  2  3
TYPE ASSIGNMENTS      4  2  3  4  5  6  7  8  9 10  1  1  1  1  1  1  1  1  1  1
TYPE ASSIGNMENTS      1  2  2  2  2  3  3  3  3  4  4  4  4  2  3  4  2  3  4  5
TYPE ASSIGNMENTS      6  7  8  9 10  1  1  1  1  1  1  1  1  1  1  1  2  2  2  2
TYPE ASSIGNMENTS      3  3  3  3  4  4  4  4  2  3  4  2  3  4  5  6  7  8  9 10
TYPE ASSIGNMENTS      1  1  1  1  1  2  3  4  1  1  1  1  1  2  3  4  1  1  1  1
TYPE ASSIGNMENTS      1  2  3  4  1  1  1  1  1  2  3  4  1  1  1  1  1  2  3  4
TYPE ASSIGNMENTS      1  1  1  1  1  2  3  4  1  1  1  1  1  2  3  4  1  1  1  1
TYPE ASSIGNMENTS      1  2  3  4  1  1  1  1  1  2  3  4  1  1  1  1  1  2  3  4
EXPONENTS  0.1357535D+05 0.2035233D+04 0.4632256D+03 0.1312002D+03 0.4285302D+02
EXPONENTS  0.1558419D+02 0.6206714D+01 0.2576490D+01 0.5769634D+00 0.2297283D+00
EXPONENTS  0.9516444D-01 0.3469723D+02 0.7958262D+01 0.2378083D+01 0.8143321D+00
EXPONENTS  0.3469723D+02 0.7958262D+01 0.2378083D+01 0.8143321D+00 0.3469723D+02
EXPONENTS  0.7958262D+01 0.2378083D+01 0.8143321D+00 0.2888755D+00 0.2888755D+00
EXPONENTS  0.2888755D+00 0.1005682D+00 0.1005682D+00 0.1005682D+00 0.8000000D+00
EXPONENTS  0.8000000D+00 0.8000000D+00 0.8000000D+00 0.8000000D+00 0.8000000D+00
EXPONENTS  0.1357535D+05 0.2035233D+04 0.4632256D+03 0.1312002D+03 0.4285302D+02
EXPONENTS  0.1558419D+02 0.6206714D+01 0.2576490D+01 0.5769634D+00 0.2297283D+00
EXPONENTS  0.9516444D-01 0.3469723D+02 0.7958262D+01 0.2378083D+01 0.8143321D+00
EXPONENTS  0.3469723D+02 0.7958262D+01 0.2378083D+01 0.8143321D+00 0.3469723D+02
EXPONENTS  0.7958262D+01 0.2378083D+01 0.8143321D+00 0.2888755D+00 0.2888755D+00
EXPONENTS  0.2888755D+00 0.1005682D+00 0.1005682D+00 0.1005682D+00 0.8000000D+00
EXPONENTS  0.8000000D+00 0.8000000D+00 0.8000000D+00 0.8000000D+00 0.8000000D+00
EXPONENTS  0.1357535D+05 0.2035233D+04 0.4632256D+03 0.1312002D+03 0.4285302D+02
EXPONENTS  0.1558419D+02 0.6206714D+01 0.2576490D+01 0.5769634D+00 0.2297283D+00
EXPONENTS  0.9516444D-01 0.3469723D+02 0.7958262D+01 0.2378083D+01 0.8143321D+00
EXPONENTS  0.3469723D+02 0.7958262D+01 0.2378083D+01 0.8143321D+00 0.3469723D+02
EXPONENTS  0.7958262D+01 0.2378083D+01 0.8143321D+00 0.2888755D+00 0.2888755D+00
EXPONENTS  0.2888755D+00 0.1005682D+00 0.1005682D+00 0.1005682D+00 0.8000000D+00
EXPONENTS  0.8000000D+00 0.8000000D+00 0.8000000D+00 0.8000000D+00 0.8000000D+00
EXPONENTS  0.1357535D+05 0.2035233D+04 0.4632256D+03 0.1312002D+03 0.4285302D+02
EXPONENTS  0.1558419D+02 0.6206714D+01 0.2576490D+01 0.5769634D+00 0.2297283D+00
EXPONENTS  0.9516444D-01 0.3469723D+02 0.7958262D+01 0.2378083D+01 0.8143321D+00
EXPONENTS  0.3469723D+02 0.7958262D+01 0.2378083D+01 0.8143321D+00 0.3469723D+02
EXPONENTS  0.7958262D+01 0.2378083D+01 0.8143321D+00 0.2888755D+00 0.2888755D+00
EXPONENTS  0.2888755D+00 0.1005682D+00 0.1005682D+00 0.1005682D+00 0.8000000D+00
EXPONENTS  0.8000000D+00 0.8000000D+00 0.8000000D+00 0.8000000D+00 0.8000000D+00
EXPONENTS  0.1357535D+05 0.2035233D+04 0.4632256D+03 0.1312002D+03 0.4285302D+02
EXPONENTS  0.1558419D+02 0.6206714D+01 0.2576490D+01 0.5769634D+00 0.2297283D+00
EXPONENTS  0.9516444D-01 0.3469723D+02 0.7958262D+01 0.2378083D+01 0.8143321D+00
EXPONENTS  0.3469723D+02 0.7958262D+01 0.2378083D+01 0.8143321D+00 0.3469723D+02
EXPONENTS  0.7958262D+01 0.2378083D+01 0.8143321D+00 0.2888755D+00 0.2888755D+00
EXPONENTS  0.2888755D+00 0.1005682D+00 0.1005682D+00 0.1005682D+00 0.8000000D+00
EXPONENTS  0.8000000D+00 0.8000000D+00 0.8000000D+00 0.8000000D+00 0.8000000D+00
EXPONENTS  0.1357535D+05 0.2035233D+04 0.4632256D+03 0.1312002D+03 0.4285302D+02
EXPONENTS  0.1558419D+02 0.6206714D+01 0.2576490D+01 0.5769634D+00 0.2297283D+00
EXPONENTS  0.9516444D-01 0.3469723D+02 0.7958262D+01 0.2378083D+01 0.8143321D+00
EXPONENTS  0.3469723D+02 0.7958262D+01 0.2378083D+01 0.8143321D+00 0.3469723D+02
EXPONENTS  0.7958262D+01 0.2378083D+01 0.8143321D+00 0.2888755D+00 0.2888755D+00
EXPONENTS  0.2888755D+00 0.1005682D+00 0.1005682D+00 0.1005682D+00 0.8000000D+00
EXPONENTS  0.8000000D+00 0.8000000D+00 0.8000000D+00 0.8000000D+00 0.8000000D+00
EXPONENTS  0.1357535D+05 0.2035233D+04 0.4632256D+03 0.1312002D+03 0.4285302D+02
EXPONENTS  0.1558419D+02 0.6206714D+01 0.2576490D+01 0.5769634D+00 0.2297283D+00
EXPONENTS  0.9516444D-01 0.3469723D+02 0.7958262D+01 0.2378083D+01 0.8143321D+00
EXPONENTS  0.3469723D+02 0.7958262D+01 0.2378083D+01 0.8143321D+00 0.3469723D+02
EXPONENTS  0.7958262D+01 0.2378083D+01 0.8143321D+00 0.2888755D+00 0.2888755D+00
EXPONENTS  0.2888755D+00 0.1005682D+00 0.1005682D+00 0.1005682D+00 0.8000000D+00
EXPONENTS  0.8000000D+00 0.8000000D+00 0.8000000D+00 0.8000000D+00 0.8000000D+00
EXPONENTS  0.1357535D+05 0.2035233D+04 0.4632256D+03 0.1312002D+03 0.4285302D+02
EXPONENTS  0.1558419D+02 0.6206714D+01 0.2576490D+01 0.5769634D+00 0.2297283D+00
EXPONENTS  0.9516444D-01 0.3469723D+02 0.7958262D+01 0.2378083D+01 0.8143321D+00
EXPONENTS  0.3469723D+02 0.7958262D+01 0.2378083D+01 0.8143321D+00 0.3469723D+02
EXPONENTS  0.7958262D+01 0.2378083D+01 0.8143321D+00 0.2888755D+00 0.2888755D+00
EXPONENTS  0.2888755D+00 0.1005682D+00 0.1005682D+00 0.1005682D+00 0.8000000D+00
EXPONENTS  0.8000000D+00 0.8000000D+00 0.8000000D+00 0.8000000D+00 0.8000000D+00
EXPONENTS  0.3406134D+02 0.5123575D+01 0.1164663D+01 0.3272304D+00 0.1030724D+00
EXPONENTS  0.8000000D+00 0.8000000D+00 0.8000000D+00 0.3406134D+02 0.5123575D+01
EXPONENTS  0.1164663D+01 0.3272304D+00 0.1030724D+00 0.8000000D+00 0.8000000D+00
EXPONENTS  0.8000000D+00 0.3406134D+02 0.5123575D+01 0.1164663D+01 0.3272304D+00
EXPONENTS  0.1030724D+00 0.8000000D+00 0.8000000D+00 0.8000000D+00 0.3406134D+02
EXPONENTS  0.5123575D+01 0.1164663D+01 0.3272304D+00 0.1030724D+00 0.8000000D+00
EXPONENTS  0.8000000D+00 0.8000000D+00 0.3406134D+02 0.5123575D+01 0.1164663D+01
EXPONENTS  0.3272304D+00 0.1030724D+00 0.8000000D+00 0.8000000D+00 0.8000000D+00
EXPONENTS  0.3406134D+02 0.5123575D+01 0.1164663D+01 0.3272304D+00 0.1030724D+00
EXPONENTS  0.8000000D+00 0.8000000D+00 0.8000000D+00 0.3406134D+02 0.5123575D+01
EXPONENTS  0.1164663D+01 0.3272304D+00 0.1030724D+00 0.8000000D+00 0.8000000D+00
EXPONENTS  0.8000000D+00 0.3406134D+02 0.5123575D+01 0.1164663D+01 0.3272304D+00
EXPONENTS  0.1030724D+00 0.8000000D+00 0.8000000D+00 0.8000000D+00 0.3406134D+02
EXPONENTS  0.5123575D+01 0.1164663D+01 0.3272304D+00 0.1030724D+00 0.8000000D+00
EXPONENTS  0.8000000D+00 0.8000000D+00 0.3406134D+02 0.5123575D+01 0.1164663D+01
EXPONENTS  0.3272304D+00 0.1030724D+00 0.8000000D+00 0.8000000D+00 0.8000000D+00
MO    1     MO 0.0        OCC NO =    2.0000000  ORB. ENERGY =  -10.178101
  0.53627879D-03  0.10008970D-02  0.17082672D-02  0.26548179D-02  0.35559415D-02
  0.36527221D-02  0.24283738D-02  0.71959750D-03 -0.77507821D-04  0.36189775D-03
 -0.73943783D-03 -0.20952011D-04 -0.22363425D-04 -0.19584508D-04 -0.12367373D-04
  0.41974582D-05  0.44802164D-05  0.39234973D-05  0.24776397D-05  0.52175931D-04
  0.55690718D-04  0.48770496D-04  0.30797961D-04 -0.91401415D-04 -0.12180063D-04
 -0.55432363D-04  0.16340305D-03  0.20469853D-05 -0.38879701D-04 -0.14349541D-03
  0.66890786D-04  0.76604628D-04 -0.93571398D-05  0.23835306D-04  0.47225094D-05
  0.62267564D-01  0.11621459D+00  0.19834765D+00  0.30825207D+00  0.41288192D+00
  0.42411916D+00  0.27459093D+00  0.81369247D-01  0.45846266D-02 -0.18959496D-02
 -0.93496037D-03 -0.17874176D-03 -0.19078255D-03 -0.16707559D-03 -0.10550615D-03
 -0.11777470D-05 -0.12570849D-05 -0.11008774D-05 -0.69519038D-06  0.17778982D-04
  0.18976648D-04  0.16618578D-04  0.10494425D-04 -0.88145237D-05  0.30725480D-05
 -0.15154116D-03  0.46891778D-03 -0.26901640D-06  0.73721366D-03 -0.72381175D-05
 -0.48514328D-04  0.55752446D-04  0.59465491D-05  0.22273223D-03 -0.48588480D-06
  0.13299958D-02  0.24822703D-02  0.42365806D-02  0.65840695D-02  0.88188969D-02
  0.90589173D-02  0.58166200D-02  0.17236330D-02  0.17568850D-03  0.13728393D-03
 -0.26731859D-04 -0.36546335D-04 -0.39008248D-04 -0.34161018D-04 -0.21572257D-04
  0.19010636D-05  0.20291271D-05  0.17769844D-05  0.11221435D-05 -0.11593013D-03
 -0.12373966D-03 -0.10836356D-03 -0.68430241D-04  0.16938854D-05 -0.23376182D-05
  0.16983091D-04 -0.31953274D-03  0.31120275D-05 -0.17105486D-03  0.70229808D-04
  0.11352293D-04 -0.81582101D-04  0.77075453D-06  0.32568465D-03 -0.86022703D-06
  0.15541022D-04  0.29005366D-04  0.49504509D-04  0.76934953D-04  0.10304895D-03
  0.10585359D-03 -0.44811178D-04 -0.13278850D-04  0.15639168D-03 -0.75646581D-04
 -0.21588356D-02  0.93898808D-05  0.10022422D-04  0.87770192D-05  0.55425783D-05
 -0.17248059D-05 -0.18409960D-05 -0.16122308D-05 -0.10181037D-05 -0.18988452D-03
 -0.20267593D-03 -0.17749108D-03 -0.11208340D-03 -0.11131885D-03  0.20233696D-05
  0.61573562D-04  0.28802872D-04 -0.13656674D-05  0.45517797D-03 -0.15772597D-03
  0.23123152D-04  0.13460281D-03  0.11836056D-05  0.66818075D-04 -0.19590847D-06
 -0.46943780D-02 -0.87614673D-02 -0.14953513D-01 -0.23239254D-01 -0.31127342D-01
 -0.31974523D-01 -0.21102860D-01 -0.62533889D-02  0.12683294D-03 -0.11995634D-02
  0.47829138D-02 -0.92760237D-05 -0.99008952D-05 -0.86705933D-05 -0.54753717D-05
  0.82908775D-06  0.88493855D-06  0.77497460D-06  0.48938681D-06 -0.58930197D-04
 -0.62899979D-04 -0.55083923D-04 -0.34784811D-04  0.10965390D-03 -0.15903966D-05
  0.16136184D-03  0.78692770D-03 -0.92885571D-06 -0.87706919D-04 -0.31964682D-03
 -0.16748501D-03  0.48713183D-03 -0.73291267D-05 -0.10870744D-02  0.73862137D-05
 -0.24585754D+00 -0.45886224D+00 -0.78315679D+00 -0.12171039D+01 -0.16302249D+01
 -0.16745941D+01 -0.10846559D+01 -0.32141497D+00 -0.17644004D-01  0.76874948D-02
 -0.65368068D-02  0.25252514D-04  0.26953628D-04  0.23604325D-04  0.14905837D-04
 -0.10893280D-04 -0.11627097D-04 -0.10182294D-04 -0.64299919D-05  0.55138358D-04
  0.58852707D-04  0.51539571D-04  0.32546597D-04 -0.17442107D-03  0.71241260D-05
 -0.20093874D-03 -0.14833946D-03 -0.16536451D-05 -0.97446042D-03 -0.24201970D-03
  0.19721660D-03  0.44803099D-04  0.22107066D-05  0.37000454D-03 -0.48202427D-05
 -0.21417979D-02 -0.39973969D-02 -0.68225020D-02 -0.10602850D-01 -0.14201770D-01
 -0.14588294D-01 -0.96707453D-02 -0.28657220D-02  0.36538366D-03 -0.14499356D-02
  0.86677292D-03 -0.95971891D-05 -0.10243696D-04 -0.89707968D-05 -0.56649465D-05
 -0.17266229D-04 -0.18429354D-04 -0.16139291D-04 -0.10191761D-04  0.47841634D-04
  0.51064446D-04  0.44719092D-04  0.28239550D-04 -0.21128825D-03  0.23505983D-04
 -0.45710385D-03  0.58470832D-04 -0.22561203D-04  0.27664685D-03 -0.80251646D-04
 -0.21125607D-03  0.29150772D-03 -0.65786982D-05  0.54126865D-03 -0.16004751D-04
 -0.33153771D-02 -0.61877351D-02 -0.10560832D-01 -0.16412587D-01 -0.21983504D-01
 -0.22581820D-01 -0.14927741D-01 -0.44235221D-02  0.11635738D-03 -0.91140502D-03
  0.40530204D-02 -0.96702645D-04 -0.10321694D-03 -0.90391027D-04 -0.57080808D-04
  0.24144762D-05  0.25771254D-05  0.22568875D-05  0.14251963D-05 -0.28807348D-04
 -0.30747930D-04 -0.26927141D-04 -0.17004154D-04  0.95644877D-04 -0.31148544D-05
  0.12571088D-03  0.47655802D-05  0.56258241D-05  0.78817136D-03  0.82688245D-03
 -0.12598558D-03 -0.70089686D-03 -0.54133236D-05 -0.14543881D-03 -0.80310782D-05
 -0.44450667D-05 -0.80224369D-05 -0.11843799D-04 -0.28811022D-04  0.47233180D-04
  0.58093457D-04  0.19445743D-05  0.12976495D-04 -0.23244687D-04 -0.41951909D-04
 -0.61935044D-04  0.70358927D-04  0.75247234D-05 -0.69075334D-05  0.41149598D-04
 -0.18377475D-04 -0.23435483D-04 -0.42296258D-04 -0.62443418D-04  0.57888235D-04
  0.95376529D-05  0.95633734D-06 -0.50528906D-04 -0.33716723D-04 -0.10431076D-04
 -0.18825960D-04 -0.27793411D-04 -0.22657359D-04  0.22213394D-03  0.26801254D-04
  0.13206129D-06  0.13176510D-03 -0.73273812D-06 -0.13224426D-05 -0.19523674D-05
 -0.40281335D-04 -0.18666450D-04 -0.92815513D-04  0.13812103D-05  0.31106151D-04
  0.30758641D-04  0.55513061D-04  0.81955838D-04  0.30761265D-03 -0.42613964D-04
  0.35460319D-03 -0.57649963D-06 -0.15376230D-03  0.31715965D-04  0.57240835D-04
  0.84506610D-04  0.14459297D-03 -0.86451657D-04  0.23144821D-03  0.19734368D-04
  0.35621304D-04  0.37045582D-04  0.66859705D-04  0.98707278D-04  0.88132730D-04
  0.78524827D-04 -0.22676318D-04  0.14709051D-03  0.18775201D-03  0.36890723D-04
  0.66580216D-04  0.98294658D-04  0.79919439D-04  0.12048074D-03  0.12640647D-04
 -0.15480986D-03  0.18126879D-03  0.21655545D-04  0.39083832D-04  0.57700803D-04
  0.20812741D-03 -0.17579474D-04 -0.30178015D-03  0.32015993D-05  0.10559055D-03
MO    2     MO 0.0        OCC NO =    2.0000000  ORB. ENERGY =  -10.178099
 -0.21458454D-02 -0.40049511D-02 -0.68353950D-02 -0.10622887D-01 -0.14228608D-01
 -0.14615862D-01 -0.96846086D-02 -0.28698301D-02  0.37225987D-03 -0.14503358D-02
  0.58382497D-03 -0.53424159D-04 -0.57023032D-04 -0.49937255D-04 -0.31534754D-04
 -0.18641934D-04 -0.19897732D-04 -0.17425206D-04 -0.11003801D-04  0.63571943D-04
  0.67854414D-04  0.59422711D-04  0.37524702D-04  0.52133773D-03  0.20989467D-04
 -0.69858205D-04 -0.21905083D-03 -0.25990956D-04  0.71767826D-04  0.41533145D-03
 -0.20371324D-03 -0.21161821D-03  0.12956443D-04 -0.15782735D-04  0.22638985D-06
 -0.24583616D+00 -0.45882234D+00 -0.78308870D+00 -0.12169981D+01 -0.16300831D+01
 -0.16744485D+01 -0.10846248D+01 -0.32140576D+00 -0.17578887D-01  0.77130445D-02
 -0.79252119D-02 -0.16447621D-03 -0.17555601D-03 -0.15374113D-03 -0.97085609D-04
 -0.13117014D-04 -0.14000631D-04 -0.12260889D-04 -0.77425986D-05  0.14631284D-04
  0.15616908D-04  0.13676325D-04  0.86364288D-05  0.29019916D-03  0.90937810D-05
 -0.18374362D-04  0.13028254D-02 -0.30073463D-05  0.10929664D-04  0.14910383D-03
  0.19797723D-03 -0.34708106D-03  0.71121243D-05  0.69120677D-04 -0.33437227D-05
 -0.46150616D-02 -0.86134331D-02 -0.14700858D-01 -0.22846602D-01 -0.30601413D-01
 -0.31434280D-01 -0.20834040D-01 -0.61737295D-02  0.23894733D-03 -0.12886681D-02
  0.54125405D-02  0.44058192D-04  0.47026135D-04  0.41182588D-04  0.26006292D-04
  0.19983191D-05  0.21329342D-05  0.18678922D-05  0.11795507D-05 -0.85831909D-04
 -0.91613903D-04 -0.80229806D-04 -0.50664124D-04 -0.21989258D-03 -0.27373779D-05
 -0.11178921D-04 -0.51500037D-03  0.27204796D-05 -0.92192795D-03 -0.14403322D-03
 -0.18433962D-03  0.32837283D-03 -0.69587065D-06 -0.12590566D-02  0.12092855D-04
  0.25364030D-04  0.47338778D-04  0.80794807D-04  0.12556320D-03  0.16818306D-03
  0.17276043D-03 -0.78260043D-04 -0.23190718D-04  0.26242171D-03 -0.12738490D-03
 -0.36114283D-02  0.18899116D-03  0.20172239D-03  0.17665602D-03  0.11155608D-03
 -0.31266748D-05 -0.33373007D-05 -0.29226021D-05 -0.18455868D-05 -0.21618062D-03
 -0.23074344D-03 -0.20207088D-03 -0.12760524D-03 -0.60409704D-04  0.31946870D-05
  0.17765212D-03 -0.45126449D-03 -0.14634850D-05  0.46503987D-03  0.22331689D-04
  0.38864983D-04 -0.61196671D-04  0.30763817D-06 -0.20410605D-03 -0.34687426D-06
 -0.10260255D-02 -0.19149478D-02 -0.32683108D-02 -0.50792814D-02 -0.68033394D-02
 -0.69885032D-02 -0.47968220D-02 -0.14214373D-02  0.26836557D-03 -0.49239965D-03
  0.25463140D-02  0.13048269D-03  0.13927254D-03  0.12196630D-03  0.77020201D-04
  0.22922504D-05  0.24466659D-05  0.21426391D-05  0.13530499D-05 -0.59129685D-04
 -0.63112907D-04 -0.55270391D-04 -0.34902564D-04  0.41072640D-04 -0.34541122D-05
  0.94903178D-04  0.76844088D-03  0.19917393D-05  0.17771917D-03 -0.68724380D-04
 -0.77725711D-04  0.14645009D-03 -0.42558664D-05 -0.24411124D-03  0.21574760D-05
 -0.62182962D-01 -0.11605669D+00 -0.19807816D+00 -0.30783325D+00 -0.41232094D+00
 -0.42354291D+00 -0.27446662D+00 -0.81332410D-01 -0.43304472D-02  0.20017369D-02
 -0.45883276D-02  0.93822101D-04  0.10014235D-03  0.87698491D-04  0.55380505D-04
 -0.75239877D-05 -0.80308348D-05 -0.70329098D-05 -0.44411950D-05  0.21728229D-03
  0.23191933D-03  0.20310064D-03  0.12825553D-03  0.61557491D-04  0.69593482D-05
 -0.18267025D-03 -0.10711380D-02  0.87467039D-06 -0.58668307D-03  0.22719469D-04
  0.51459856D-04 -0.74179325D-04 -0.22800479D-05  0.27501524D-03 -0.83899347D-05
 -0.54899742D-03 -0.10246348D-02 -0.17487813D-02 -0.27177808D-02 -0.36402758D-02
 -0.37393518D-02 -0.24707757D-02 -0.73216241D-03  0.10919107D-03 -0.37205170D-03
 -0.37159468D-03 -0.45695665D-04 -0.48773915D-04 -0.42713187D-04 -0.26972845D-04
 -0.48010440D-05 -0.51244622D-05 -0.44876880D-05 -0.28339191D-05  0.75258362D-04
  0.80328077D-04  0.70346376D-04  0.44422860D-04 -0.87107877D-05 -0.53417602D-06
 -0.18639497D-03 -0.19221456D-04 -0.96145948D-05 -0.34451668D-04 -0.36567612D-05
 -0.37799335D-04  0.41456096D-04 -0.26325284D-05  0.95783646D-04  0.34307046D-05
 -0.55646361D-02 -0.10385695D-01 -0.17725642D-01 -0.27547418D-01 -0.36897824D-01
 -0.37902058D-01 -0.25054886D-01 -0.74244885D-02  0.19447326D-03 -0.15277523D-02
  0.67893016D-02  0.29345834D-04  0.31322691D-04  0.27430481D-04  0.17322007D-04
  0.36977143D-05  0.39468077D-05  0.34563707D-05  0.21826551D-05  0.65448451D-04
  0.69857331D-04  0.61176742D-04  0.38632351D-04 -0.12546018D-03 -0.47928007D-05
  0.40985167D-04 -0.78476090D-03  0.10372037D-04  0.85144414D-03 -0.14973556D-04
 -0.21174184D-03  0.22671539D-03  0.77001333D-05  0.13009404D-02 -0.79943114D-05
  0.33639377D-04  0.60712200D-04  0.89631506D-04  0.14871748D-03 -0.71813889D-04
 -0.13098484D-03  0.25781576D-04 -0.20360337D-03  0.29337511D-04  0.52948211D-04
  0.78169262D-04  0.12841611D-03  0.14285524D-03 -0.19149760D-03 -0.15337799D-03
  0.75264523D-04  0.29432915D-04  0.53120395D-04  0.78423463D-04  0.13177049D-03
  0.92732368D-04 -0.17315942D-03  0.13937877D-03  0.10881483D-03  0.29330179D-04
  0.52934979D-04  0.78149727D-04  0.33691191D-03  0.70415397D-04 -0.26537695D-04
  0.12401601D-06 -0.36608958D-03 -0.12658226D-05 -0.22845510D-05 -0.33727611D-05
 -0.67103498D-04 -0.30245723D-04 -0.30237458D-04  0.20089409D-05  0.12621257D-03
  0.48226744D-05  0.87039417D-05  0.12849928D-04  0.14000298D-03  0.22843096D-03
  0.45425589D-04  0.90021987D-07 -0.37711939D-04  0.12124387D-04  0.21882040D-04
  0.32305207D-04  0.45639865D-04  0.70824943D-05  0.80815125D-04  0.12918367D-04
 -0.31625282D-04 -0.66759222D-05 -0.12048675D-04 -0.17787873D-04  0.11420010D-03
  0.53237658D-04  0.20203432D-04  0.22051637D-04  0.82633960D-04 -0.65379863D-05
 -0.11799729D-04 -0.17420345D-04  0.12292248D-03  0.73592404D-04  0.29222812D-04
 -0.36318644D-04  0.94352987D-04  0.36362899D-04  0.65627602D-04  0.96888282D-04
  0.34834416D-03 -0.29710346D-04 -0.10245039D-03  0.48968788D-05  0.41480686D-03
MO    3     MO 0.0        OCC NO =    2.0000000  ORB. ENERGY =  -10.167808
  0.52152043D-04  0.97335241D-04  0.16612558D-03  0.25817575D-03  0.34580822D-03
  0.35521994D-03  0.20769113D-03  0.61544899D-04  0.57965413D-04 -0.18730002D-03
  0.32824241D-03  0.27214679D-04  0.29047973D-04  0.25438423D-04  0.16064048D-04
  0.46132646D-05  0.49240332D-05  0.43121646D-05  0.27230783D-05  0.45508151D-04
  0.48573769D-04  0.42537911D-04  0.26862161D-04  0.24816235D-04  0.20930438D-05
 -0.68007571D-04 -0.68621593D-04  0.10543673D-04 -0.11094512D-03  0.14509023D-04
 -0.83393405D-05 -0.61696823D-05  0.34014116D-05 -0.12331472D-04 -0.56826787D-05
 -0.32092992D-03 -0.59897542D-03 -0.10222930D-02 -0.15887455D-02 -0.21280126D-02
 -0.21859299D-02 -0.12345470D-02 -0.36583205D-03 -0.20955887D-03  0.26858095D-04
  0.10380150D-02  0.20072735D-03  0.21424918D-03  0.18762622D-03  0.11848362D-03
  0.41481350D-05  0.44275706D-05  0.38773932D-05  0.24485256D-05  0.45025210D-04
  0.48058295D-04  0.42086491D-04  0.26577095D-04  0.69131427D-04 -0.60115047D-05
 -0.27581787D-03 -0.15414220D-03  0.33206332D-05  0.83122335D-03 -0.20411657D-04
  0.35160248D-04 -0.14748590D-04 -0.49751402D-05  0.40522743D-03  0.88764098D-06
  0.18288650D-01  0.34133469D-01  0.58256827D-01  0.90536929D-01  0.12126783D+00
  0.12456833D+00  0.81104275D-01  0.24033546D-01  0.79958016D-03  0.94076748D-03
 -0.40595162D-02  0.34413927D-04  0.36732192D-04  0.32167788D-04  0.20313558D-04
 -0.34568154D-06 -0.36896808D-06 -0.32311949D-06 -0.20404594D-06  0.10269062D-03
  0.10960829D-03  0.95988178D-04  0.60615339D-04 -0.11471605D-03  0.69200911D-06
 -0.19611142D-03 -0.15103300D-04  0.19243956D-06  0.68169070D-03 -0.73506012D-03
  0.14185516D-03  0.59320496D-03  0.41189317D-05  0.60957631D-04 -0.16169408D-05
  0.25235080D+00  0.47098109D+00  0.80384048D+00  0.12492484D+01  0.16732802D+01
  0.17188212D+01  0.11134113D+01  0.32993603D+00  0.17731612D-01 -0.70130380D-02
  0.47260789D-02  0.14952237D-03  0.15959482D-03  0.13976330D-03  0.88258782D-04
 -0.24160548D-05 -0.25788103D-05 -0.22583630D-05 -0.14261281D-05 -0.25348388D-03
 -0.27055961D-03 -0.23693942D-03 -0.14962429D-03 -0.39185730D-03  0.10517271D-05
  0.66321746D-03  0.57658154D-03 -0.17760236D-05 -0.97687950D-03  0.12007129D-03
 -0.58073562D-03  0.46066433D-03 -0.23943858D-05 -0.61764197D-03  0.12954915D-05
  0.18315009D-01  0.34182665D-01  0.58340792D-01  0.90667419D-01  0.12144262D+00
  0.12474787D+00  0.81220288D-01  0.24067924D-01  0.80189070D-03  0.93964198D-03
 -0.40587245D-02 -0.10700324D-03 -0.11421142D-03 -0.10001932D-03 -0.63160953D-04
 -0.88156679D-07 -0.94095279D-07 -0.82402842D-07 -0.52036369D-07  0.19857740D-04
  0.21195440D-04  0.18561659D-04  0.11721457D-04  0.22764894D-03  0.50175092D-07
  0.54072325D-05 -0.59005508D-03  0.11803633D-05  0.34125992D-03  0.30938274D-03
  0.14195511D-03 -0.45133785D-03 -0.39527407D-07 -0.10906569D-02 -0.13124936D-06
 -0.32113795D-03 -0.59936368D-03 -0.10229557D-02 -0.15897754D-02 -0.21293920D-02
 -0.21873468D-02 -0.12353360D-02 -0.36606585D-03 -0.20967438D-03  0.26966064D-04
  0.10393467D-02 -0.13615387D-03 -0.14532576D-03 -0.12726734D-03 -0.80367741D-04
  0.47939438D-05  0.51168838D-05  0.44810512D-05  0.28297280D-05 -0.15407857D-03
 -0.16445794D-03 -0.14402212D-03 -0.90948177D-04  0.20810148D-03 -0.64350363D-05
 -0.19387362D-03 -0.65239112D-03  0.47289343D-05  0.53546003D-03  0.15534152D-03
  0.35287009D-04 -0.19062853D-03  0.57208537D-06  0.21200361D-03  0.44763664D-05
  0.52603851D-04  0.98178484D-04  0.16756477D-03  0.26041240D-03  0.34880405D-03
  0.35829731D-03  0.20957329D-03  0.62102638D-04  0.58287565D-04 -0.18790479D-03
  0.32843628D-03 -0.52757045D-04 -0.56310979D-04 -0.49313683D-04 -0.31140976D-04
  0.44830303D-05  0.47850258D-05  0.41904305D-05  0.26462047D-05 -0.19803294D-05
 -0.21137326D-05 -0.18510766D-05 -0.11689318D-05  0.47319349D-04  0.19663981D-05
 -0.54541029D-04  0.13067555D-03  0.93585775D-05  0.63225204D-05 -0.65011382D-05
 -0.85157781D-05  0.15016916D-04  0.30748074D-05  0.10531356D-04 -0.56697665D-05
 -0.57506952D-03 -0.10732951D-02 -0.18318316D-02 -0.28468493D-02 -0.38131539D-02
 -0.39169350D-02 -0.23366598D-02 -0.69241999D-03 -0.27932670D-03  0.12399837D-03
  0.15832428D-02  0.10070638D-03  0.10749038D-03  0.94133450D-04  0.59444101D-04
 -0.71645191D-05 -0.76471509D-05 -0.66969031D-05 -0.42290109D-05 -0.17054841D-03
 -0.18203726D-03 -0.15941701D-03 -0.10066985D-03 -0.57498795D-04  0.78200241D-05
  0.97301697D-04  0.11403831D-04 -0.50930970D-05 -0.17407424D-04 -0.30838090D-04
  0.59209345D-04 -0.28371255D-04 -0.13550190D-05 -0.45696221D-05  0.25782194D-05
  0.14032776D-04  0.25326292D-04  0.37390075D-04 -0.63313734D-04  0.64969462D-04
  0.37771835D-04  0.80938030D-05 -0.47262988D-04  0.95445726D-05  0.17226003D-04
  0.25431339D-04 -0.67164222D-04 -0.74572978D-04  0.16401133D-04  0.23965791D-04
 -0.64191900D-05  0.53976418D-05  0.97416403D-05  0.14381918D-04 -0.45057511D-04
 -0.64718650D-04 -0.11576483D-04 -0.29251695D-04 -0.12178445D-04 -0.38200309D-04
 -0.68943751D-04 -0.10178403D-03 -0.55138343D-04  0.40900812D-04  0.22064908D-03
 -0.56165575D-06  0.14109375D-03 -0.10715546D-03 -0.19339370D-03 -0.28551376D-03
  0.27149332D-03  0.10378712D-03 -0.73879508D-03  0.11434236D-05  0.12508153D-02
 -0.38118473D-04 -0.68796054D-04 -0.10156598D-03 -0.54975114D-04  0.40390220D-04
 -0.22972290D-03  0.20361579D-06 -0.12515601D-03  0.14003222D-04  0.25272953D-04
  0.37311328D-04 -0.63156720D-04  0.65296094D-04  0.23244483D-04  0.76834428D-05
 -0.55973407D-04  0.55500699D-05  0.10016742D-04  0.14788060D-04 -0.45774818D-04
 -0.65432188D-04  0.15572486D-04 -0.29080230D-04  0.37504452D-05  0.94360073D-05
  0.17030065D-04  0.25142069D-04 -0.66512698D-04 -0.74413582D-04 -0.18886262D-05
  0.24189975D-04 -0.16861806D-04 -0.83572816D-05 -0.15083185D-04 -0.22267824D-04
  0.98159057D-04 -0.20107252D-03 -0.67561148D-04 -0.10585588D-05  0.11419898D-03
MO    4     MO 0.0        OCC NO =    2.0000000  ORB. ENERGY =  -10.164607
  0.25279954D+00  0.47181861D+00  0.80526991D+00  0.12514699D+01  0.16762557D+01
  0.17218777D+01  0.11147232D+01  0.33032478D+00  0.18470241D-01 -0.81913008D-02
  0.34056196D-02 -0.35945550D-03 -0.38366991D-03 -0.33599445D-03 -0.21217631D-03
  0.22405214D-04  0.23914522D-04  0.20942863D-04  0.13225157D-04 -0.93152533D-04
 -0.99427675D-04 -0.87072625D-04 -0.54985279D-04  0.10023189D-02  0.25583836D-05
  0.42742082D-04  0.63872339D-04  0.21225352D-04 -0.77822073D-04 -0.65508796D-03
  0.32734009D-03  0.32774787D-03 -0.74989678D-05 -0.35149156D-04 -0.10896805D-05
 -0.21622899D-02 -0.40356427D-02 -0.68877775D-02 -0.10704294D-01 -0.14337648D-01
 -0.14727870D-01 -0.93100652D-02 -0.27588420D-02 -0.69790402D-03  0.17687220D-02
 -0.84333791D-02  0.21654211D-03  0.23112928D-03  0.20240877D-03  0.12781862D-03
  0.20394681D-04  0.21768551D-04  0.19063554D-04  0.12038397D-04 -0.45720915D-04
 -0.48800866D-04 -0.42736789D-04 -0.26987750D-04  0.36285667D-03 -0.18396740D-04
  0.30141870D-04  0.27297108D-02  0.14891128D-04 -0.21488626D-03 -0.15172055D-03
 -0.93263940D-04  0.24498449D-03 -0.81108545D-05  0.28140907D-04  0.15386056D-05
 -0.31846193D-02 -0.59436922D-02 -0.10144315D-01 -0.15765279D-01 -0.21116479D-01
 -0.21691198D-01 -0.13939753D-01 -0.41307526D-02 -0.29282716D-03 -0.94761912D-04
  0.67127123D-02 -0.15445007D-03 -0.16485447D-03 -0.14436937D-03 -0.91167462D-04
 -0.55942175D-05 -0.59710672D-05 -0.52290924D-05 -0.33021067D-05  0.95092389D-04
  0.10149821D-03  0.88885870D-04  0.56130320D-04 -0.94517648D-04  0.87419301D-05
 -0.38255609D-04 -0.10118878D-02 -0.19104661D-04 -0.19014483D-02 -0.53620764D-04
  0.39412525D-04  0.14208239D-04 -0.74833432D-05  0.21322210D-03  0.26802665D-05
  0.15564986D-03  0.29050093D-03  0.49580846D-03  0.77053588D-03  0.10320785D-02
  0.10601682D-02  0.65420132D-03  0.19385880D-03  0.60354559D-04 -0.10288117D-03
 -0.55270464D-02  0.56958376D-04  0.60795329D-04  0.53240799D-04  0.33620902D-04