 Generated by Multiwfn
GAUSSIAN             37 MOL ORBITALS    462 PRIMITIVES       24 NUCLEI
  C    1    (CENTRE  1)   1.83102011  1.87089289 -0.28709986  CHARGE =  6.0
  C    2    (CENTRE  2)  -1.05454125  1.88993126  0.03966719  CHARGE =  6.0
  C    3    (CENTRE  3)  -1.87934258  1.90122649  2.77404473  CHARGE =  6.0
  C    4    (CENTRE  4)  -2.26615943  4.16427668  4.07546176  CHARGE =  6.0
  C    5    (CENTRE  5)  -2.95807483  4.17504216  6.61077153  CHARGE =  6.0
  C    6    (CENTRE  6)  -3.29189652  1.92297845  7.94560669  CHARGE =  6.0
  C    7    (CENTRE  7)  -4.11836752  1.93426126 10.67959409  CHARGE =  6.0
  C    8    (CENTRE  8)  -7.00402184  1.95091974 11.00359342  CHARGE =  6.0
  C    9    (CENTRE  9)  -2.90481671 -0.34014538  6.64427034  CHARGE =  6.0
  C   10    (CENTRE 10)  -2.21291051 -0.35087644  4.10900181  CHARGE =  6.0
  H   11    (CENTRE 11)   2.34710674  1.86214651 -2.28692048  CHARGE =  1.0
  H   12    (CENTRE 12)   2.66630055  0.20186785  0.59498932  CHARGE =  1.0
  H   13    (CENTRE 13)   2.68643457  3.53444809  0.58606187  CHARGE =  1.0
  H   14    (CENTRE 14)  -1.85521324  0.23724056 -0.90964947  CHARGE =  1.0
  H   15    (CENTRE 15)  -1.83390341  3.54886839 -0.91602059  CHARGE =  1.0
  H   16    (CENTRE 16)  -2.02325745  5.94718794  3.09149637  CHARGE =  1.0
  H   17    (CENTRE 17)  -3.24145228  5.96657113  7.56796196  CHARGE =  1.0
  H   18    (CENTRE 18)  -3.31972789  3.58780974 11.62909309  CHARGE =  1.0
  H   19    (CENTRE 19)  -3.33826464  0.27614203 11.63612379  CHARGE =  1.0
  H   20    (CENTRE 20)  -7.84020898  3.61907757 10.12074059  CHARGE =  1.0
  H   21    (CENTRE 21)  -7.52173218  1.95945220 13.00306411  CHARGE =  1.0
  H   22    (CENTRE 22)  -7.85763660  0.28664778 10.13008061  CHARGE =  1.0
  H   23    (CENTRE 23)  -3.14592174 -2.12299943  7.62877651  CHARGE =  1.0
  H   24    (CENTRE 24)  -1.92957751 -2.14230666  3.15161019  CHARGE =  1.0
CENTRE ASSIGNMENTS    1  1  1  1  1  1  1  1  1  1  1  1  1  1  1  1  1  1  1  1
CENTRE ASSIGNMENTS    1  1  1  1  1  1  1  1  1  1  1  1  1  1  1  2  2  2  2  2
CENTRE ASSIGNMENTS    2  2  2  2  2  2  2  2  2  2  2  2  2  2  2  2  2  2  2  2
CENTRE ASSIGNMENTS    2  2  2  2  2  2  2  2  2  2  3  3  3  3  3  3  3  3  3  3
CENTRE ASSIGNMENTS    3  3  3  3  3  3  3  3  3  3  3  3  3  3  3  3  3  3  3  3
CENTRE ASSIGNMENTS    3  3  3  3  3  4  4  4  4  4  4  4  4  4  4  4  4  4  4  4
CENTRE ASSIGNMENTS    4  4  4  4  4  4  4  4  4  4  4  4  4  4  4  4  4  4  4  4
CENTRE ASSIGNMENTS    5  5  5  5  5  5  5  5  5  5  5  5  5  5  5  5  5  5  5  5
CENTRE ASSIGNMENTS    5  5  5  5  5  5  5  5  5  5  5  5  5  5  5  6  6  6  6  6
CENTRE ASSIGNMENTS    6  6  6  6  6  6  6  6  6  6  6  6  6  6  6  6  6  6  6  6
CENTRE ASSIGNMENTS    6  6  6  6  6  6  6  6  6  6  7  7  7  7  7  7  7  7  7  7
CENTRE ASSIGNMENTS    7  7  7  7  7  7  7  7  7  7  7  7  7  7  7  7  7  7  7  7
CENTRE ASSIGNMENTS    7  7  7  7  7  8  8  8  8  8  8  8  8  8  8  8  8  8  8  8
CENTRE ASSIGNMENTS    8  8  8  8  8  8  8  8  8  8  8  8  8  8  8  8  8  8  8  8
CENTRE ASSIGNMENTS    9  9  9  9  9  9  9  9  9  9  9  9  9  9  9  9  9  9  9  9
CENTRE ASSIGNMENTS    9  9  9  9  9  9  9  9  9  9  9  9  9  9  9 10 10 10 10 10
CENTRE ASSIGNMENTS   10 10 10 10 10 10 10 10 10 10 10 10 10 10 10 10 10 10 10 10
CENTRE ASSIGNMENTS   10 10 10 10 10 10 10 10 10 10 11 11 11 11 11 11 11 11 12 12
CENTRE ASSIGNMENTS   12 12 12 12 12 12 13 13 13 13 13 13 13 13 14 14 14 14 14 14
CENTRE ASSIGNMENTS   14 14 15 15 15 15 15 15 15 15 16 16 16 16 16 16 16 16 17 17
CENTRE ASSIGNMENTS   17 17 17 17 17 17 18 18 18 18 18 18 18 18 19 19 19 19 19 19
CENTRE ASSIGNMENTS   19 19 20 20 20 20 20 20 20 20 21 21 21 21 21 21 21 21 22 22
CENTRE ASSIGNMENTS   22 22 22 22 22 22 23 23 23 23 23 23 23 23 24 24 24 24 24 24
CENTRE ASSIGNMENTS   24 24
TYPE ASSIGNMENTS      1  1  1  1  1  1  1  1  1  1  1  2  2  2  2  3  3  3  3  4
TYPE ASSIGNMENTS      4  4  4  2  3  4  2  3  4  5  6  7  8  9 10  1  1  1  1  1
TYPE ASSIGNMENTS      1  1  1  1  1  1  2  2  2  2  3  3  3  3  4  4  4  4  2  3
TYPE ASSIGNMENTS      4  2  3  4  5  6  7  8  9 10  1  1  1  1  1  1  1  1  1  1
TYPE ASSIGNMENTS      1  2  2  2  2  3  3  3  3  4  4  4  4  2  3  4  2  3  4  5
TYPE ASSIGNMENTS      6  7  8  9 10  1  1  1  1  1  1  1  1  1  1  1  2  2  2  2
TYPE ASSIGNMENTS      3  3  3  3  4  4  4  4  2  3  4  2  3  4  5  6  7  8  9 10
TYPE ASSIGNMENTS      1  1  1  1  1  1  1  1  1  1  1  2  2  2  2  3  3  3  3  4
TYPE ASSIGNMENTS      4  4  4  2  3  4  2  3  4  5  6  7  8  9 10  1  1  1  1  1
TYPE ASSIGNMENTS      1  1  1  1  1  1  2  2  2  2  3  3  3  3  4  4  4  4  2  3
TYPE ASSIGNMENTS      4  2  3  4  5  6  7  8  9 10  1  1  1  1  1  1  1  1  1  1
TYPE ASSIGNMENTS      1  2  2  2  2  3  3  3  3  4  4  4  4  2  3  4  2  3  4  5
TYPE ASSIGNMENTS      6  7  8  9 10  1  1  1  1  1  1  1  1  1  1  1  2  2  2  2
TYPE ASSIGNMENTS      3  3  3  3  4  4  4  4  2  3  4  2  3  4  5  6  7  8  9 10
TYPE ASSIGNMENTS      1  1  1  1  1  1  1  1  1  1  1  2  2  2  2  3  3  3  3  4
TYPE ASSIGNMENTS      4  4  4  2  3  4  2  3  4  5  6  7  8  9 10  1  1  1  1  1
TYPE ASSIGNMENTS      1  1  1  1  1  1  2  2  2  2  3  3  3  3  4  4  4  4  2  3
TYPE ASSIGNMENTS      4  2  3  4  5  6  7  8  9 10  1  1  1  1  1  2  3  4  1  1
TYPE ASSIGNMENTS      1  1  1  2  3  4  1  1  1  1  1  2  3  4  1  1  1  1  1  2
TYPE ASSIGNMENTS      3  4  1  1  1  1  1  2  3  4  1  1  1  1  1  2  3  4  1  1
TYPE ASSIGNMENTS      1  1  1  2  3  4  1  1  1  1  1  2  3  4  1  1  1  1  1  2
TYPE ASSIGNMENTS      3  4  1  1  1  1  1  2  3  4  1  1  1  1  1  2  3  4  1  1
TYPE ASSIGNMENTS      1  1  1  2  3  4  1  1  1  1  1  2  3  4  1  1  1  1  1  2
TYPE ASSIGNMENTS      3  4
EXPONENTS  0.1357535D+05 0.2035233D+04 0.4632256D+03 0.1312002D+03 0.4285302D+02
EXPONENTS  0.1558419D+02 0.6206714D+01 0.2576490D+01 0.5769634D+00 0.2297283D+00
EXPONENTS  0.9516444D-01 0.3469723D+02 0.7958262D+01 0.2378083D+01 0.8143321D+00
EXPONENTS  0.3469723D+02 0.7958262D+01 0.2378083D+01 0.8143321D+00 0.3469723D+02
EXPONENTS  0.7958262D+01 0.2378083D+01 0.8143321D+00 0.2888755D+00 0.2888755D+00
EXPONENTS  0.2888755D+00 0.1005682D+00 0.1005682D+00 0.1005682D+00 0.8000000D+00
EXPONENTS  0.8000000D+00 0.8000000D+00 0.8000000D+00 0.8000000D+00 0.8000000D+00
EXPONENTS  0.1357535D+05 0.2035233D+04 0.4632256D+03 0.1312002D+03 0.4285302D+02
EXPONENTS  0.1558419D+02 0.6206714D+01 0.2576490D+01 0.5769634D+00 0.2297283D+00
EXPONENTS  0.9516444D-01 0.3469723D+02 0.7958262D+01 0.2378083D+01 0.8143321D+00
EXPONENTS  0.3469723D+02 0.7958262D+01 0.2378083D+01 0.8143321D+00 0.3469723D+02
EXPONENTS  0.7958262D+01 0.2378083D+01 0.8143321D+00 0.2888755D+00 0.2888755D+00
EXPONENTS  0.2888755D+00 0.1005682D+00 0.1005682D+00 0.1005682D+00 0.8000000D+00
EXPONENTS  0.8000000D+00 0.8000000D+00 0.8000000D+00 0.8000000D+00 0.8000000D+00
EXPONENTS  0.1357535D+05 0.2035233D+04 0.4632256D+03 0.1312002D+03 0.4285302D+02
EXPONENTS  0.1558419D+02 0.6206714D+01 0.2576490D+01 0.5769634D+00 0.2297283D+00
EXPONENTS  0.9516444D-01 0.3469723D+02 0.7958262D+01 0.2378083D+01 0.8143321D+00
EXPONENTS  0.3469723D+02 0.7958262D+01 0.2378083D+01 0.8143321D+00 0.3469723D+02
EXPONENTS  0.7958262D+01 0.2378083D+01 0.8143321D+00 0.2888755D+00 0.2888755D+00
EXPONENTS  0.2888755D+00 0.1005682D+00 0.1005682D+00 0.1005682D+00 0.8000000D+00
EXPONENTS  0.8000000D+00 0.8000000D+00 0.8000000D+00 0.8000000D+00 0.8000000D+00
EXPONENTS  0.1357535D+05 0.2035233D+04 0.4632256D+03 0.1312002D+03 0.4285302D+02
EXPONENTS  0.1558419D+02 0.6206714D+01 0.2576490D+01 0.5769634D+00 0.2297283D+00
EXPONENTS  0.9516444D-01 0.3469723D+02 0.7958262D+01 0.2378083D+01 0.8143321D+00
EXPONENTS  0.3469723D+02 0.7958262D+01 0.2378083D+01 0.8143321D+00 0.3469723D+02
EXPONENTS  0.7958262D+01 0.2378083D+01 0.8143321D+00 0.2888755D+00 0.2888755D+00
EXPONENTS  0.2888755D+00 0.1005682D+00 0.1005682D+00 0.1005682D+00 0.8000000D+00
EXPONENTS  0.8000000D+00 0.8000000D+00 0.8000000D+00 0.8000000D+00 0.8000000D+00
EXPONENTS  0.1357535D+05 0.2035233D+04 0.4632256D+03 0.1312002D+03 0.4285302D+02
EXPONENTS  0.1558419D+02 0.6206714D+01 0.2576490D+01 0.5769634D+00 0.2297283D+00
EXPONENTS  0.9516444D-01 0.3469723D+02 0.7958262D+01 0.2378083D+01 0.8143321D+00
EXPONENTS  0.3469723D+02 0.7958262D+01 0.2378083D+01 0.8143321D+00 0.3469723D+02
EXPONENTS  0.7958262D+01 0.2378083D+01 0.8143321D+00 0.2888755D+00 0.2888755D+00
EXPONENTS  0.2888755D+00 0.1005682D+00 0.1005682D+00 0.1005682D+00 0.8000000D+00
EXPONENTS  0.8000000D+00 0.8000000D+00 0.8000000D+00 0.8000000D+00 0.8000000D+00
EXPONENTS  0.1357535D+05 0.2035233D+04 0.4632256D+03 0.1312002D+03 0.4285302D+02
EXPONENTS  0.1558419D+02 0.6206714D+01 0.2576490D+01 0.5769634D+00 0.2297283D+00
EXPONENTS  0.9516444D-01 0.3469723D+02 0.7958262D+01 0.2378083D+01 0.8143321D+00
EXPONENTS  0.3469723D+02 0.7958262D+01 0.2378083D+01 0.8143321D+00 0.3469723D+02
EXPONENTS  0.7958262D+01 0.2378083D+01 0.8143321D+00 0.2888755D+00 0.2888755D+00
EXPONENTS  0.2888755D+00 0.1005682D+00 0.1005682D+00 0.1005682D+00 0.8000000D+00
EXPONENTS  0.8000000D+00 0.8000000D+00 0.8000000D+00 0.8000000D+00 0.8000000D+00
EXPONENTS  0.1357535D+05 0.2035233D+04 0.4632256D+03 0.1312002D+03 0.4285302D+02
EXPONENTS  0.1558419D+02 0.6206714D+01 0.2576490D+01 0.5769634D+00 0.2297283D+00
EXPONENTS  0.9516444D-01 0.3469723D+02 0.7958262D+01 0.2378083D+01 0.8143321D+00
EXPONENTS  0.3469723D+02 0.7958262D+01 0.2378083D+01 0.8143321D+00 0.3469723D+02
EXPONENTS  0.7958262D+01 0.2378083D+01 0.8143321D+00 0.2888755D+00 0.2888755D+00
EXPONENTS  0.2888755D+00 0.1005682D+00 0.1005682D+00 0.1005682D+00 0.8000000D+00
EXPONENTS  0.8000000D+00 0.8000000D+00 0.8000000D+00 0.8000000D+00 0.8000000D+00
EXPONENTS  0.1357535D+05 0.2035233D+04 0.4632256D+03 0.1312002D+03 0.4285302D+02
EXPONENTS  0.1558419D+02 0.6206714D+01 0.2576490D+01 0.5769634D+00 0.2297283D+00
EXPONENTS  0.9516444D-01 0.3469723D+02 0.7958262D+01 0.2378083D+01 0.8143321D+00
EXPONENTS  0.3469723D+02 0.7958262D+01 0.2378083D+01 0.8143321D+00 0.3469723D+02
EXPONENTS  0.7958262D+01 0.2378083D+01 0.8143321D+00 0.2888755D+00 0.2888755D+00
EXPONENTS  0.2888755D+00 0.1005682D+00 0.1005682D+00 0.1005682D+00 0.8000000D+00
EXPONENTS  0.8000000D+00 0.8000000D+00 0.8000000D+00 0.8000000D+00 0.8000000D+00
EXPONENTS  0.1357535D+05 0.2035233D+04 0.4632256D+03 0.1312002D+03 0.4285302D+02
EXPONENTS  0.1558419D+02 0.6206714D+01 0.2576490D+01 0.5769634D+00 0.2297283D+00
EXPONENTS  0.9516444D-01 0.3469723D+02 0.7958262D+01 0.2378083D+01 0.8143321D+00
EXPONENTS  0.3469723D+02 0.7958262D+01 0.2378083D+01 0.8143321D+00 0.3469723D+02
EXPONENTS  0.7958262D+01 0.2378083D+01 0.8143321D+00 0.2888755D+00 0.2888755D+00
EXPONENTS  0.2888755D+00 0.1005682D+00 0.1005682D+00 0.1005682D+00 0.8000000D+00
EXPONENTS  0.8000000D+00 0.8000000D+00 0.8000000D+00 0.8000000D+00 0.8000000D+00
EXPONENTS  0.1357535D+05 0.2035233D+04 0.4632256D+03 0.1312002D+03 0.4285302D+02
EXPONENTS  0.1558419D+02 0.6206714D+01 0.2576490D+01 0.5769634D+00 0.2297283D+00
EXPONENTS  0.9516444D-01 0.3469723D+02 0.7958262D+01 0.2378083D+01 0.8143321D+00
EXPONENTS  0.3469723D+02 0.7958262D+01 0.2378083D+01 0.8143321D+00 0.3469723D+02
EXPONENTS  0.7958262D+01 0.2378083D+01 0.8143321D+00 0.2888755D+00 0.2888755D+00
EXPONENTS  0.2888755D+00 0.1005682D+00 0.1005682D+00 0.1005682D+00 0.8000000D+00
EXPONENTS  0.8000000D+00 0.8000000D+00 0.8000000D+00 0.8000000D+00 0.8000000D+00
EXPONENTS  0.3406134D+02 0.5123575D+01 0.1164663D+01 0.3272304D+00 0.1030724D+00
EXPONENTS  0.8000000D+00 0.8000000D+00 0.8000000D+00 0.3406134D+02 0.5123575D+01
EXPONENTS  0.1164663D+01 0.3272304D+00 0.1030724D+00 0.8000000D+00 0.8000000D+00
EXPONENTS  0.8000000D+00 0.3406134D+02 0.5123575D+01 0.1164663D+01 0.3272304D+00
EXPONENTS  0.1030724D+00 0.8000000D+00 0.8000000D+00 0.8000000D+00 0.3406134D+02
EXPONENTS  0.5123575D+01 0.1164663D+01 0.3272304D+00 0.1030724D+00 0.8000000D+00
EXPONENTS  0.8000000D+00 0.8000000D+00 0.3406134D+02 0.5123575D+01 0.1164663D+01
EXPONENTS  0.3272304D+00 0.1030724D+00 0.8000000D+00 0.8000000D+00 0.8000000D+00
EXPONENTS  0.3406134D+02 0.5123575D+01 0.1164663D+01 0.3272304D+00 0.1030724D+00
EXPONENTS  0.8000000D+00 0.8000000D+00 0.8000000D+00 0.3406134D+02 0.5123575D+01
EXPONENTS  0.1164663D+01 0.3272304D+00 0.1030724D+00 0.8000000D+00 0.8000000D+00
EXPONENTS  0.8000000D+00 0.3406134D+02 0.5123575D+01 0.1164663D+01 0.3272304D+00
EXPONENTS  0.1030724D+00 0.8000000D+00 0.8000000D+00 0.8000000D+00 0.3406134D+02
EXPONENTS  0.5123575D+01 0.1164663D+01 0.3272304D+00 0.1030724D+00 0.8000000D+00
EXPONENTS  0.8000000D+00 0.8000000D+00 0.3406134D+02 0.5123575D+01 0.1164663D+01
EXPONENTS  0.3272304D+00 0.1030724D+00 0.8000000D+00 0.8000000D+00 0.8000000D+00
EXPONENTS  0.3406134D+02 0.5123575D+01 0.1164663D+01 0.3272304D+00 0.1030724D+00
EXPONENTS  0.8000000D+00 0.8000000D+00 0.8000000D+00 0.3406134D+02 0.5123575D+01
EXPONENTS  0.1164663D+01 0.3272304D+00 0.1030724D+00 0.8000000D+00 0.8000000D+00
EXPONENTS  0.8000000D+00 0.3406134D+02 0.5123575D+01 0.1164663D+01 0.3272304D+00
EXPONENTS  0.1030724D+00 0.8000000D+00 0.8000000D+00 0.8000000D+00 0.3406134D+02
EXPONENTS  0.5123575D+01 0.1164663D+01 0.3272304D+00 0.1030724D+00 0.8000000D+00
EXPONENTS  0.8000000D+00 0.8000000D+00
MO    1     MO 0.0        OCC NO =    2.0000000  ORB. ENERGY =  -10.173584
 -0.32323407D-04 -0.60327581D-04 -0.10296327D-03 -0.16001520D-03 -0.21432909D-03
 -0.22016240D-03 -0.71652747D-04 -0.21232785D-04 -0.12987975D-03  0.31443283D-03
 -0.10985678D-02  0.16508480D-04  0.17620560D-04  0.15430999D-04  0.97444840D-05
  0.10588768D-05  0.11302071D-05  0.98976569D-06  0.62502471D-06 -0.40576685D-04
 -0.43310099D-04 -0.37928314D-04 -0.23951258D-04  0.39951511D-04 -0.86807912D-06
  0.26745453D-04  0.18209737D-03 -0.16819289D-05 -0.16833637D-03 -0.46747720D-04
  0.39374896D-04  0.73728238D-05  0.21585275D-05  0.11055526D-03 -0.56818260D-06
  0.37838254D-02  0.70620351D-02  0.12053031D-01  0.18731614D-01  0.25089677D-01
  0.25772533D-01  0.16759274D-01  0.49662585D-02  0.11539943D-03  0.41540440D-03
  0.12498692D-03  0.20057456D-05  0.21408610D-05  0.18748340D-05  0.11839343D-05
 -0.70371837D-06 -0.75112376D-06 -0.65778786D-06 -0.41538485D-06  0.68792436D-04
  0.73426580D-04  0.64302471D-04  0.40606210D-04 -0.14186297D-03  0.14422938D-05
  0.15985968D-03  0.31174803D-03 -0.13630770D-05 -0.12758195D-03  0.25476099D-04
  0.14255053D-03 -0.16802663D-03  0.13283014D-05  0.19605006D-03 -0.19756585D-05
  0.12852314D+00  0.23987231D+00  0.40939876D+00  0.63624657D+00  0.85220742D+00
  0.87540162D+00  0.56683113D+00  0.16796849D+00  0.95711694D-02 -0.45792810D-02
  0.77039721D-02  0.52020541D-04  0.55524861D-04  0.48625249D-04  0.30706239D-04
  0.67271934D-06  0.71803651D-06  0.62881209D-06  0.39708700D-06  0.84764219D-04
  0.90474289D-04  0.79231802D-04  0.50033897D-04 -0.11419146D-03 -0.37247801D-06
  0.14776845D-03 -0.24873476D-03  0.27354763D-05  0.10581393D-02 -0.12303007D-03
  0.16376522D-03 -0.40735157D-04 -0.91786559D-05 -0.76646875D-04 -0.54560188D-05
  0.45731853D-02  0.85352764D-02  0.14567465D-01  0.22639296D-01  0.30323742D-01
  0.31149051D-01  0.20262791D-01  0.60044520D-02  0.17610706D-03  0.77475146D-03
 -0.58682093D-02 -0.14538277D-04 -0.15517636D-04 -0.13589389D-04 -0.85815297D-05
 -0.91235141D-04 -0.97381119D-04 -0.85280378D-04 -0.53853497D-04  0.14132764D-03
  0.15084806D-03  0.13210342D-03  0.83421667D-04  0.51213591D-05  0.65079319D-04
 -0.59384054D-04  0.10976703D-03  0.11288109D-02 -0.48837659D-03  0.67692993D-04
 -0.25241507D-03  0.18472208D-03  0.25345578D-03 -0.31022332D-04 -0.81660110D-03
 -0.79213180D-02 -0.14784146D-01 -0.25232637D-01 -0.39214039D-01 -0.52524440D-01
 -0.53953977D-01 -0.35223786D-01 -0.10437828D-01 -0.20003231D-03 -0.11704517D-02
  0.68821047D-02  0.28433579D-04  0.30348983D-04  0.26577768D-04  0.16783529D-04
  0.14162501D-05  0.15116546D-05  0.13238139D-05  0.83597196D-06  0.78001817D-04
  0.83256344D-04  0.72910771D-04  0.46042244D-04 -0.22186730D-06  0.15748697D-04
 -0.11274607D-03  0.97330032D-04 -0.13520047D-02 -0.40419683D-03 -0.13271409D-03
  0.32621326D-03 -0.19349917D-03  0.32194907D-03  0.34556580D-04 -0.11863188D-02
 -0.21822209D+00 -0.40728414D+00 -0.69512659D+00 -0.10802962D+01 -0.14469806D+01
 -0.14863625D+01 -0.96255108D+00 -0.28523177D+00 -0.16117216D-01  0.76743851D-02
 -0.10334400D-01  0.14913147D-03  0.15917758D-03  0.13939791D-03  0.88028044D-04
  0.79516680D-06  0.84873254D-06  0.74326761D-06  0.46936424D-06  0.25977845D-04
  0.27727821D-04  0.24282315D-04  0.15333980D-04 -0.21650018D-03 -0.13805922D-05
  0.22916149D-03 -0.24926753D-03  0.61395090D-05  0.13160327D-02  0.17318392D-03
 -0.25907059D-03  0.85886675D-04  0.13926282D-04  0.92204455D-04  0.92656764D-05
 -0.64737108D-02 -0.12082369D-01 -0.20621416D-01 -0.32047740D-01 -0.42925689D-01
 -0.44093981D-01 -0.28652465D-01 -0.84905554D-02 -0.23359595D-03 -0.58094802D-03
 -0.46677856D-03  0.88761826D-05  0.94741191D-05  0.82968492D-05  0.52393569D-05
 -0.21832541D-05 -0.23303272D-05 -0.20407568D-05 -0.12887125D-05  0.11280804D-03
  0.12040726D-03  0.10544525D-03  0.66587362D-04 -0.25298704D-03  0.36105488D-05
  0.25306730D-03  0.50085626D-03 -0.77362698D-05 -0.14950730D-03 -0.34785893D-04
 -0.23641049D-03  0.27119638D-03 -0.25619158D-05 -0.32910001D-03  0.27752565D-05
  0.52127684D-04  0.97289779D-04  0.16604799D-03  0.25805516D-03  0.34564670D-03
  0.35505403D-03  0.11478861D-03  0.34015192D-04  0.21350858D-03 -0.52067772D-03
  0.19029183D-02  0.12905227D-04  0.13774577D-04  0.12062925D-04  0.76175868D-05
  0.72006699D-06  0.76857370D-06  0.67306944D-06  0.42503497D-06 -0.76737789D-04
 -0.81907165D-04 -0.71729243D-04 -0.45296124D-04  0.88119360D-04  0.21047088D-07
  0.63347740D-04  0.30905496D-03 -0.77459608D-06 -0.29475849D-03  0.77944867D-04
 -0.73154029D-04 -0.47908384D-05 -0.31070000D-05 -0.20222263D-03  0.43620979D-06
 -0.79357493D-02 -0.14811080D-01 -0.25278606D-01 -0.39285480D-01 -0.52620131D-01
 -0.54052272D-01 -0.35290739D-01 -0.10457668D-01 -0.19242624D-03 -0.11872287D-02
  0.69114466D-02  0.23977957D-04  0.25593212D-04  0.22412957D-04  0.14153503D-04
  0.10091062D-05  0.10770838D-05  0.94324355D-06  0.59564656D-06  0.78938705D-04
  0.84256344D-04  0.73786509D-04  0.46595262D-04  0.60247438D-05 -0.18612944D-04
 -0.11385497D-03  0.60933798D-04  0.13526652D-02 -0.43376853D-03 -0.12323603D-03
  0.33556172D-03 -0.21232569D-03 -0.34338631D-03  0.10029686D-04  0.11699910D-02
  0.45665717D-02  0.85229328D-02  0.14546398D-01  0.22606556D-01  0.30279888D-01
  0.31104003D-01  0.20232039D-01  0.59953393D-02  0.17878077D-03  0.77049376D-03
 -0.58934064D-02 -0.13008978D-04 -0.13885317D-04 -0.12159904D-04 -0.76788279D-05
  0.92786017D-04  0.99036469D-04  0.86730031D-04  0.54768935D-04  0.13943695D-03
  0.14883000D-03  0.13033614D-03  0.82305647D-04  0.16730740D-05 -0.66233590D-04
 -0.57329728D-04  0.14419334D-03 -0.11376280D-02 -0.47670825D-03  0.73677323D-04
 -0.24582104D-03  0.17214372D-03 -0.23879237D-03 -0.47738861D-04  0.82968813D-03
 -0.74031773D-05 -0.13361222D-04 -0.19725631D-04  0.38295411D-04 -0.67451205D-04
 -0.11635843D-04  0.78649988D-06  0.27231422D-05 -0.10013735D-04 -0.18072746D-04
 -0.26681415D-04  0.72067157D-04  0.15628159D-03  0.56181931D-04 -0.32552059D-04
  0.60838009D-05 -0.95908633D-05 -0.17309548D-04 -0.25554680D-04  0.71577953D-04
  0.15400630D-03  0.59148748D-04  0.33717229D-04  0.19689345D-05 -0.13974275D-04
 -0.25220711D-04 -0.37234201D-04 -0.10043717D-03  0.23600242D-04 -0.65800401D-04
 -0.76738775D-04 -0.10085334D-03 -0.14112214D-04 -0.25469662D-04 -0.37601737D-04
 -0.10093094D-03  0.24934557D-04 -0.67476999D-04  0.75670791D-04 -0.97783290D-04
 -0.61244705D-05 -0.11053418D-04 -0.16318540D-04 -0.25613900D-03 -0.18298176D-03
  0.11487828D-04  0.28972625D-03 -0.40980599D-04  0.15784649D-04  0.28488066D-04
  0.42057910D-04  0.31171234D-03  0.19583924D-03  0.30651305D-04 -0.38419156D-03
 -0.38070688D-04  0.15715866D-04  0.28363925D-04  0.41874637D-04  0.23407048D-03
 -0.26191434D-04 -0.10466421D-03 -0.15193016D-03 -0.17451528D-03  0.16391004D-04
  0.29582413D-04  0.43673532D-04  0.23161479D-03 -0.37425893D-04 -0.10526261D-03
  0.15096068D-03 -0.16970238D-03  0.15416548D-04  0.27823718D-04  0.41077110D-04
 -0.10553105D-03 -0.27976699D-03  0.11222043D-03 -0.62238627D-04  0.14798861D-04
  0.13027394D-04  0.23511783D-04  0.34711253D-04 -0.78789294D-04  0.11019826D-03
 -0.37240093D-04  0.36289301D-06  0.16034437D-04  0.15014014D-04  0.27097227D-04
  0.40004567D-04 -0.10474968D-03 -0.27189900D-03  0.11753591D-03  0.64767106D-04
  0.99703095D-05  0.16065952D-04  0.28995760D-04  0.42807436D-04  0.31341948D-03
  0.19707529D-03  0.24541700D-04  0.38463973D-03 -0.45432208D-04 -0.56328917D-05
 -0.10166218D-04 -0.15008737D-04 -0.25826225D-03 -0.18694464D-03  0.14986575D-04
 -0.29100527D-03 -0.35640652D-04
MO    2     MO 0.0        OCC NO =    2.0000000  ORB. ENERGY =  -10.173569
 -0.49124537D-04 -0.91684781D-04 -0.15648174D-03 -0.24318825D-03 -0.32573352D-03
 -0.33459888D-03 -0.10744366D-03 -0.31838670D-04 -0.20540955D-03  0.50574475D-03
 -0.19406913D-02 -0.35461210D-05 -0.37850024D-05 -0.33146717D-05 -0.20931739D-05
 -0.35383002D-06 -0.37766548D-06 -0.33073613D-06 -0.20885575D-06 -0.84863673D-04
 -0.90580443D-04 -0.79324765D-04 -0.50092602D-04  0.10979332D-03  0.15938488D-05
  0.81805332D-04  0.30843739D-03  0.12180775D-05 -0.30429933D-03 -0.76351567D-04
  0.79775069D-04 -0.34235024D-05  0.30538042D-05  0.21809963D-03 -0.91251225D-07
  0.65400246D-02  0.12206135D-01  0.20832653D-01  0.32376024D-01  0.43365401D-01
  0.44545660D-01  0.28924002D-01  0.85710197D-02  0.27462656D-03  0.44832990D-03
  0.73099423D-03  0.14730480D-04  0.15722786D-04  0.13769046D-04  0.86949813D-05
 -0.35136821D-05 -0.37503783D-05 -0.32843500D-05 -0.20740261D-05  0.10846377D-03
  0.11577034D-03  0.10138452D-03  0.64023062D-04 -0.26515753D-03  0.52491142D-05
  0.23384957D-03  0.47125622D-03 -0.15009559D-04 -0.80218569D-04  0.26531391D-04
  0.23037776D-03 -0.25690915D-03  0.33325102D-05  0.32437982D-03 -0.21168355D-05
  0.21820169D+00  0.40724606D+00  0.69506160D+00  0.10801952D+01  0.14468453D+01
  0.14862235D+01  0.96258561D+00  0.28524200D+00  0.15972779D-01 -0.75648792D-02
  0.74102731D-02  0.21244536D-03  0.22675656D-03  0.19857941D-03  0.12540043D-03
  0.42722072D-06  0.45600009D-06  0.39933675D-06  0.25217619D-06 -0.10039570D-03
 -0.10715877D-03 -0.93843045D-04 -0.59260714D-04 -0.23936998D-03 -0.21290077D-05
  0.20680005D-03 -0.65278965D-04  0.81824305D-05  0.80042008D-03 -0.13525268D-03
  0.23864066D-03 -0.10338798D-03 -0.12733016D-04 -0.51927460D-04 -0.89547450D-05
  0.81233286D-02  0.15161173D-01  0.25876123D-01  0.40214081D-01  0.53863926D-01
  0.55329920D-01  0.36259436D-01  0.10744721D-01  0.78833509D-04  0.10517334D-02
 -0.36665121D-02  0.75289457D-04  0.80361268D-04  0.70375442D-04  0.44441215D-04
  0.16681400D-03  0.17805128D-03  0.15592633D-03  0.98465537D-04 -0.91838639D-04
 -0.98025271D-04 -0.85844487D-04 -0.54209724D-04  0.37570808D-05 -0.15598358D-03
 -0.12757695D-03 -0.71849830D-04  0.75129677D-03 -0.12709989D-04  0.13231220D-03
 -0.23696841D-03  0.10465621D-03  0.25198650D-03  0.34708509D-04 -0.93944301D-03
  0.48775805D-02  0.91033917D-02  0.15537088D-01  0.24146188D-01  0.32342116D-01
  0.33222359D-01  0.21841845D-01  0.64723713D-02 -0.72645298D-05  0.52104734D-03
 -0.25672901D-03 -0.77667648D-04 -0.82899663D-04 -0.72598412D-04 -0.45844993D-04
  0.18881617D-03  0.20153561D-03  0.17649246D-03  0.11145279D-03  0.14683668D-03
  0.15672821D-03  0.13725290D-03  0.86673498D-04  0.34796023D-05 -0.16521225D-03
  0.85301173D-04  0.12145081D-03  0.91932696D-04 -0.25469127D-03  0.87380128D-04
 -0.81351676D-04 -0.60284527D-05 -0.87953728D-04  0.36128854D-04  0.42815776D-03
  0.12848991D+00  0.23981029D+00  0.40929291D+00  0.63608207D+00  0.85198710D+00
  0.87517529D+00  0.56689552D+00  0.16798757D+00  0.93268444D-02 -0.43953678D-02
  0.27500478D-02 -0.16078951D-03 -0.17162096D-03 -0.15029505D-03 -0.94909453D-04
 -0.12693164D-06 -0.13548228D-06 -0.11864703D-06 -0.74924120D-07  0.12870731D-03
  0.13737757D-03  0.12030681D-03  0.75972250D-04  0.15413247D-03  0.17734701D-05
 -0.10914578D-03 -0.62916701D-04 -0.59565720D-05 -0.18925470D-03 -0.58649685D-04
  0.12933145D-03 -0.70681767D-04 -0.65454426D-05 -0.82327106D-05 -0.52940199D-05
  0.38802470D-02  0.72419939D-02  0.12360173D-01  0.19208944D-01  0.25729026D-01
  0.26429283D-01  0.17148782D-01  0.50816809D-02  0.18388811D-03  0.19068101D-03
  0.58140315D-03 -0.11946700D-04 -0.12751480D-04 -0.11166960D-04 -0.70517959D-05
  0.26392767D-05  0.28170693D-05  0.24670155D-05  0.15578896D-05 -0.61459415D-04
 -0.65599576D-04 -0.57448063D-04 -0.36277737D-04  0.16327773D-03 -0.37325981D-05
 -0.12700199D-03 -0.26103036D-03  0.12117938D-04  0.75997986D-05  0.10666809D-04
  0.13224556D-03 -0.14291237D-03  0.21133841D-05  0.18853135D-03 -0.90489962D-06
 -0.27358574D-04 -0.51061345D-04 -0.87148246D-04 -0.13543708D-03 -0.18140842D-03
 -0.18634574D-03 -0.59439537D-04 -0.17613657D-04 -0.11687022D-03  0.29010568D-03
 -0.11657739D-02  0.11056424D-04  0.11801230D-04  0.10334790D-04  0.65262910D-05
  0.84150014D-06  0.89818709D-06  0.78657686D-06  0.49671349D-06  0.54610311D-04
  0.58289089D-04  0.51045989D-04  0.32234906D-04 -0.76673168D-04 -0.18771219D-05
 -0.58767797D-04 -0.18167495D-03 -0.19609131D-05  0.18435218D-03 -0.44162679D-04
  0.50698319D-04 -0.65356407D-05  0.15013315D-05  0.13701562D-03  0.31429198D-06
  0.48852623D-02  0.91177289D-02  0.15561558D-01  0.24184216D-01  0.32393052D-01
  0.33274681D-01  0.21878684D-01  0.64832879D-02 -0.16241227D-04  0.54356091D-03
 -0.36645416D-03 -0.73006118D-04 -0.77924113D-04 -0.68241133D-04 -0.43093425D-04
 -0.19000632D-03 -0.20280593D-03 -0.17760493D-03 -0.11215530D-03  0.14880342D-03
  0.15882744D-03  0.13909127D-03  0.87834407D-04 -0.74902954D-06  0.16775815D-03
  0.83102653D-04  0.11583006D-03 -0.11113985D-03 -0.22519481D-03  0.82835403D-04
 -0.84630823D-04  0.17954201D-05  0.97458989D-04  0.45536962D-04 -0.42549858D-03
  0.81148240D-02  0.15145300D-01  0.25849033D-01  0.40171979D-01  0.53807534D-01
  0.55271992D-01  0.36217491D-01  0.10732292D-01  0.91099236D-04  0.10232791D-02
 -0.35554676D-02  0.81680069D-04  0.87182378D-04  0.76348950D-04  0.48213411D-04
 -0.16450276D-03 -0.17558435D-03 -0.15376595D-03 -0.97101280D-04 -0.90721949D-04
 -0.96833356D-04 -0.84800681D-04 -0.53550574D-04 -0.32727804D-05  0.15241187D-03
 -0.12899596D-03 -0.58952345D-04 -0.73422068D-03  0.27535114D-04  0.14074158D-03
 -0.22943229D-03  0.88690707D-04 -0.23278808D-03  0.14705239D-04  0.94973028D-03
 -0.13480750D-04 -0.24329998D-04 -0.35919211D-04  0.93045997D-04 -0.10550285D-03
 -0.55504442D-04 -0.75228046D-06  0.27749258D-04 -0.13775855D-04 -0.24862604D-04
 -0.36705515D-04  0.87966197D-04  0.29483226D-03  0.12951407D-03 -0.69370813D-04
  0.19613104D-04 -0.13655916D-04 -0.24646138D-04 -0.36385939D-04  0.87054786D-04
  0.28185962D-03  0.13579823D-03  0.72568053D-04  0.16812693D-04 -0.72185708D-05
 -0.13028045D-04 -0.19233750D-04 -0.30131913D-03  0.11070335D-04 -0.97677856D-04
 -0.17449858D-03 -0.17789012D-03 -0.84493608D-05 -0.15249369D-04 -0.22513168D-04
 -0.29486956D-03  0.33275469D-04 -0.95438237D-04  0.17481352D-03 -0.17295497D-03
 -0.22187817D-04 -0.40044475D-04 -0.59119033D-04 -0.18355722D-03 -0.74284413D-04
  0.30870922D-04  0.27030425D-03 -0.19306207D-04 -0.16887159D-04 -0.30477870D-04
 -0.44995526D-04 -0.29232944D-04  0.32606891D-04 -0.24041779D-04  0.92371948D-04
 -0.45767886D-05  0.46740823D-06  0.84357633D-06  0.12454007D-05 -0.21484759D-03
 -0.16194864D-05  0.53394087D-04  0.11540685D-03  0.10664056D-03 -0.52008872D-06
 -0.93865385D-06 -0.13857669D-05 -0.20906720D-03  0.16811620D-04  0.50775605D-04
 -0.11604675D-03  0.10398991D-03 -0.71883635D-05 -0.12973527D-04 -0.19153263D-04
  0.41914316D-04  0.18213915D-03 -0.86155164D-04  0.44943082D-04 -0.14183539D-04
 -0.82178122D-05 -0.14831471D-04 -0.21896210D-04  0.62974034D-04 -0.59369115D-04
  0.43012125D-04  0.10531719D-05 -0.23048360D-04 -0.72833048D-05 -0.13144877D-04
 -0.19406233D-04  0.41282913D-04  0.17213043D-03 -0.90055361D-04 -0.47275906D-04
 -0.13796549D-04 -0.16412776D-04 -0.29621706D-04 -0.43731542D-04 -0.36609993D-04
  0.23153792D-04 -0.21325859D-04 -0.95988156D-04 -0.28050660D-05 -0.22446351D-04
 -0.40511076D-04 -0.59807893D-04 -0.17638227D-03 -0.65704542D-04  0.35743748D-04
 -0.26704233D-03 -0.14424100D-04
MO    3     MO 0.0        OCC NO =    2.0000000  ORB. ENERGY =  -10.169508
  0.62602563D-03  0.11683983D-02  0.19941476D-02  0.30991046D-02  0.41510322D-02
  0.42640092D-02  0.27640768D-02  0.81907603D-03 -0.17584456D-04  0.27773064D-03
 -0.74430914D-03 -0.64486277D-04 -0.68830340D-04 -0.60277367D-04 -0.38064407D-04
 -0.81523411D-06 -0.87015167D-06 -0.76202516D-06 -0.48120940D-06  0.18143593D-04
  0.19365821D-04  0.16959391D-04  0.10709644D-04 -0.86428242D-04  0.22275455D-05
  0.14339976D-04  0.17353723D-03 -0.19920532D-05 -0.34370209D-04 -0.73487792D-04
  0.43342694D-04  0.30145098D-04  0.15333080D-05 -0.21375594D-04  0.41316355D-06
  0.66337398D-01  0.12381043D+00  0.21131174D+00  0.32839955D+00  0.43986805D+00
  0.45183976D+00  0.29242648D+00  0.86654437D-01  0.51160813D-02 -0.28181691D-02
  0.95878195D-03  0.25440901D-04  0.27154706D-04  0.23780417D-04  0.15017037D-04
 -0.10339881D-05 -0.11036418D-05 -0.96650144D-06 -0.61033363D-06  0.16515569D-03
  0.17628127D-03  0.15437626D-03  0.97486687D-04 -0.91825288D-04 -0.51009387D-06
 -0.34817646D-03  0.21215291D-03 -0.37518332D-05 -0.36297743D-04 -0.10084074D-03
  0.16931125D-03 -0.68470514D-04  0.48852935D-05  0.21198750D-03 -0.87345171D-06
 -0.19148818D-02 -0.35738865D-02 -0.60996815D-02 -0.94795144D-02 -0.12697141D-01
 -0.13042714D-01 -0.83889748D-02 -0.24858963D-02 -0.32423314D-03  0.66532283D-03
 -0.62840360D-02  0.36649758D-04  0.39118638D-04  0.34257691D-04  0.21633305D-04
 -0.68270881D-06 -0.72869891D-06 -0.63814956D-06 -0.40298350D-06 -0.68533066D-04
 -0.73149738D-04 -0.64060029D-04 -0.40453111D-04  0.23497385D-04  0.10970985D-06