[Molden Format]
[Title]
 Molden file created by orca_2mkl for BaseName=./HEX

[Atoms] AU
C    1   6          1.9647777365         1.8905017574        -0.0499193924 
C    2   6         -0.9255253423         1.8885187245        -0.0144532113 
C    3   6         -2.0375167292         1.8892867080         2.6571195419 
C    4   6         -4.9293342194         1.8863941746         2.7134746008 
C    5   6         -6.0413227608         1.8883838846         5.3850463268 
C    6   6         -8.9316254364         1.8842421816         5.4205175860 
H    7   1          2.6970106888         1.8904805167        -1.9802845426 
H    8   1          2.7234215064         0.2245560160         0.9091528406 
H    9   1          2.7211182195         3.5580267081         0.9082313833 
H   10   1         -1.6269087053         0.2331163215        -1.0417871496 
H   11   1         -1.6292208303         3.5417535136        -1.0436883140 
H   12   1         -1.3352500867         3.5463286303         3.6853903341 
H   13   1         -1.3319044020         0.2351379061         3.6877508085 
H   14   1         -5.6315427122         0.2288453088         1.6859827511 
H   15   1         -5.6350146012         3.5400404728         1.6820835753 
H   16   1         -5.3412192348         3.5451394882         6.4110700569 
H   17   1         -5.3363719443         0.2365045554         6.4155999010 
H   18   1         -9.6915412654         3.5483976025         4.4593434128 
H   19   1         -9.6638746799         1.8861594093         7.3508787289 
H   20   1         -9.6866885803         0.2149142756         4.4645074877 
[GTO]
  1 0
s   6 1.0 
    13575.3496820000         0.5435951735
     2035.2333680000         1.0145521571
      463.2256235900         1.7315729053
      131.2001959800         2.6910372890
       42.8530158900         3.6044547339
       15.5841857700         3.7025557541
s   2 1.0 
        6.2067138500         1.8383540665
        2.5764896500         0.5447575690
s   1 1.0 
        0.5769633900         0.4718145012
s   1 1.0 
        0.2297283100         0.2364944648
s   1 1.0 
        0.0951644400         0.1221141848
p   4 1.0 
       34.6972322400         1.3596662229
        7.9582622800         1.4512589862
        2.3780826900         1.2709231150
        0.8143320800         0.8025721212
p   1 1.0 
        0.2888754700         0.3018758836
p   1 1.0 
        0.1005682400         0.0807265050
d   1 1.0 
        0.8000000000         1.9292013661

  2 0
s   6 1.0 
    13575.3496820000         0.5435951735
     2035.2333680000         1.0145521571
      463.2256235900         1.7315729053
      131.2001959800         2.6910372890
       42.8530158900         3.6044547339
       15.5841857700         3.7025557541
s   2 1.0 
        6.2067138500         1.8383540665
        2.5764896500         0.5447575690
s   1 1.0 
        0.5769633900         0.4718145012
s   1 1.0 
        0.2297283100         0.2364944648
s   1 1.0 
        0.0951644400         0.1221141848
p   4 1.0 
       34.6972322400         1.3596662229
        7.9582622800         1.4512589862
        2.3780826900         1.2709231150
        0.8143320800         0.8025721212
p   1 1.0 
        0.2888754700         0.3018758836
p   1 1.0 
        0.1005682400         0.0807265050
d   1 1.0 
        0.8000000000         1.9292013661

  3 0
s   6 1.0 
    13575.3496820000         0.5435951735
     2035.2333680000         1.0145521571
      463.2256235900         1.7315729053
      131.2001959800         2.6910372890
       42.8530158900         3.6044547339
       15.5841857700         3.7025557541
s   2 1.0 
        6.2067138500         1.8383540665
        2.5764896500         0.5447575690
s   1 1.0 
        0.5769633900         0.4718145012
s   1 1.0 
        0.2297283100         0.2364944648
s   1 1.0 
        0.0951644400         0.1221141848
p   4 1.0 
       34.6972322400         1.3596662229
        7.9582622800         1.4512589862
        2.3780826900         1.2709231150
        0.8143320800         0.8025721212
p   1 1.0 
        0.2888754700         0.3018758836
p   1 1.0 
        0.1005682400         0.0807265050
d   1 1.0 
        0.8000000000         1.9292013661

  4 0
s   6 1.0 
    13575.3496820000         0.5435951735
     2035.2333680000         1.0145521571
      463.2256235900         1.7315729053
      131.2001959800         2.6910372890
       42.8530158900         3.6044547339
       15.5841857700         3.7025557541
s   2 1.0 
        6.2067138500         1.8383540665
        2.5764896500         0.5447575690
s   1 1.0 
        0.5769633900         0.4718145012
s   1 1.0 
        0.2297283100         0.2364944648
s   1 1.0 
        0.0951644400         0.1221141848
p   4 1.0 
       34.6972322400         1.3596662229
        7.9582622800         1.4512589862
        2.3780826900         1.2709231150
        0.8143320800         0.8025721212
p   1 1.0 
        0.2888754700         0.3018758836
p   1 1.0 
        0.1005682400         0.0807265050
d   1 1.0 
        0.8000000000         1.9292013661

  5 0
s   6 1.0 
    13575.3496820000         0.5435951735
     2035.2333680000         1.0145521571
      463.2256235900         1.7315729053
      131.2001959800         2.6910372890
       42.8530158900         3.6044547339
       15.5841857700         3.7025557541
s   2 1.0 
        6.2067138500         1.8383540665
        2.5764896500         0.5447575690
s   1 1.0 
        0.5769633900         0.4718145012
s   1 1.0 
        0.2297283100         0.2364944648
s   1 1.0 
        0.0951644400         0.1221141848
p   4 1.0 
       34.6972322400         1.3596662229
        7.9582622800         1.4512589862
        2.3780826900         1.2709231150
        0.8143320800         0.8025721212
p   1 1.0 
        0.2888754700         0.3018758836
p   1 1.0 
        0.1005682400         0.0807265050
d   1 1.0 
        0.8000000000         1.9292013661

  6 0
s   6 1.0 
    13575.3496820000         0.5435951735
     2035.2333680000         1.0145521571
      463.2256235900         1.7315729053
      131.2001959800         2.6910372890
       42.8530158900         3.6044547339
       15.5841857700         3.7025557541
s   2 1.0 
        6.2067138500         1.8383540665
        2.5764896500         0.5447575690
s   1 1.0 
        0.5769633900         0.4718145012
s   1 1.0 
        0.2297283100         0.2364944648
s   1 1.0 
        0.0951644400         0.1221141848
p   4 1.0 
       34.6972322400         1.3596662229
        7.9582622800         1.4512589862
        2.3780826900         1.2709231150
        0.8143320800         0.8025721212
p   1 1.0 
        0.2888754700         0.3018758836
p   1 1.0 
        0.1005682400         0.0807265050
d   1 1.0 
        0.8000000000         1.9292013661

  7 0
s   3 1.0 
       34.0613410000         0.2556300129
        5.1235746000         0.4613599287
        1.1646626000         0.6811215012
s   1 1.0 
        0.3272304100         0.3083545312
s   1 1.0 
        0.1030724100         0.1296483265
p   1 1.0 
        0.8000000000         1.0784563492

  8 0
s   3 1.0 
       34.0613410000         0.2556300129
        5.1235746000         0.4613599287
        1.1646626000         0.6811215012
s   1 1.0 
        0.3272304100         0.3083545312
s   1 1.0 
        0.1030724100         0.1296483265
p   1 1.0 
        0.8000000000         1.0784563492

  9 0
s   3 1.0 
       34.0613410000         0.2556300129
        5.1235746000         0.4613599287
        1.1646626000         0.6811215012
s   1 1.0 
        0.3272304100         0.3083545312
s   1 1.0 
        0.1030724100         0.1296483265
p   1 1.0 
        0.8000000000         1.0784563492

 10 0
s   3 1.0 
       34.0613410000         0.2556300129
        5.1235746000         0.4613599287
        1.1646626000         0.6811215012
s   1 1.0 
        0.3272304100         0.3083545312
s   1 1.0 
        0.1030724100         0.1296483265
p   1 1.0 
        0.8000000000         1.0784563492

 11 0
s   3 1.0 
       34.0613410000         0.2556300129
        5.1235746000         0.4613599287
        1.1646626000         0.6811215012
s   1 1.0 
        0.3272304100         0.3083545312
s   1 1.0 
        0.1030724100         0.1296483265
p   1 1.0 
        0.8000000000         1.0784563492

 12 0
s   3 1.0 
       34.0613410000         0.2556300129
        5.1235746000         0.4613599287
        1.1646626000         0.6811215012
s   1 1.0 
        0.3272304100         0.3083545312
s   1 1.0 
        0.1030724100         0.1296483265
p   1 1.0 
        0.8000000000         1.0784563492

 13 0
s   3 1.0 
       34.0613410000         0.2556300129
        5.1235746000         0.4613599287
        1.1646626000         0.6811215012
s   1 1.0 
        0.3272304100         0.3083545312
s   1 1.0 
        0.1030724100         0.1296483265
p   1 1.0 
        0.8000000000         1.0784563492

 14 0
s   3 1.0 
       34.0613410000         0.2556300129
        5.1235746000         0.4613599287
        1.1646626000         0.6811215012
s   1 1.0 
        0.3272304100         0.3083545312
s   1 1.0 
        0.1030724100         0.1296483265
p   1 1.0 
        0.8000000000         1.0784563492

 15 0
s   3 1.0 
       34.0613410000         0.2556300129
        5.1235746000         0.4613599287
        1.1646626000         0.6811215012
s   1 1.0 
        0.3272304100         0.3083545312
s   1 1.0 
        0.1030724100         0.1296483265
p   1 1.0 
        0.8000000000         1.0784563492

 16 0
s   3 1.0 
       34.0613410000         0.2556300129
        5.1235746000         0.4613599287
        1.1646626000         0.6811215012
s   1 1.0 
        0.3272304100         0.3083545312
s   1 1.0 
        0.1030724100         0.1296483265
p   1 1.0 
        0.8000000000         1.0784563492

 17 0
s   3 1.0 
       34.0613410000         0.2556300129
        5.1235746000         0.4613599287
        1.1646626000         0.6811215012
s   1 1.0 
        0.3272304100         0.3083545312
s   1 1.0 
        0.1030724100         0.1296483265
p   1 1.0 
        0.8000000000         1.0784563492

 18 0
s   3 1.0 
       34.0613410000         0.2556300129
        5.1235746000         0.4613599287
        1.1646626000         0.6811215012
s   1 1.0 
        0.3272304100         0.3083545312
s   1 1.0 
        0.1030724100         0.1296483265
p   1 1.0 
        0.8000000000         1.0784563492

 19 0
s   3 1.0 
       34.0613410000         0.2556300129
        5.1235746000         0.4613599287
        1.1646626000         0.6811215012
s   1 1.0 
        0.3272304100         0.3083545312
s   1 1.0 
        0.1030724100         0.1296483265
p   1 1.0 
        0.8000000000         1.0784563492

 20 0
s   3 1.0 
       34.0613410000         0.2556300129
        5.1235746000         0.4613599287
        1.1646626000         0.6811215012
s   1 1.0 
        0.3272304100         0.3083545312
s   1 1.0 
        0.1030724100         0.1296483265
p   1 1.0 
        0.8000000000         1.0784563492

[5D]
[7F]
[9G]
[MO]
 Sym=     1a
 Ene= -1.01603297489213E+01
 Spin= Alpha
 Occup= 2.000000
  1       0.005315688360
  2       0.006962048767
  3      -0.000137329682
  4       0.003539244163
  5      -0.011088162816
  6      -0.000066740858
  7      -0.000000027817
  8      -0.000001960626
  9      -0.000856042820
 10      -0.000000768156
 11       0.000229880073
 12       0.003407961329
 13       0.000002407637
 14       0.000057492680
 15       0.000073324110
 16      -0.000050176519
 17      -0.000000087324
 18      -0.000183423145
 19      -0.000000316686
 20       0.324454385118
 21       0.423025518544
 22       0.027741092989
 23      -0.026056283981
 24       0.043852534257
 25       0.000081565146
 26       0.000000094881
 27       0.000081425765
 28      -0.001061383340
 29      -0.000001464702
 30      -0.001668435870
 31      -0.000730289825
 32       0.000001961588
 33       0.003507316947
 34      -0.000150692407
 35       0.000280160469
 36      -0.000000225707
 37      -0.000406376880
 38      -0.000000422794
 39       0.015738972954
 40       0.020554700665
 41       0.000759282596
 42       0.002436639693
 43      -0.013677354319
 44       0.000009478003
 45       0.000000030812
 46       0.000019586538
 47       0.000573179105
 48      -0.000000562396
 49      -0.001187659866
 50      -0.001549498112
 51       0.000001339105
 52       0.006720498386
 53      -0.000170526961
 54      -0.000029826814
 55      -0.000000284819
 56       0.000014575461
 57      -0.000000034504
 58      -0.016259412101
 59      -0.021235136237
 60      -0.000780817510
 61      -0.002532233462
 62       0.014038521002
 63       0.000010413644
 64      -0.000000003647
 65       0.000018105277
 66       0.000608357476
 67      -0.000000364433
 68      -0.001212708646
 69      -0.001617434452
 70       0.000007823085
 71       0.006843310991
 72       0.000174238089
 73       0.000026074930
 74       0.000000319343
 75      -0.000009971495
 76      -0.000000036868
 77      -0.334763411194
 78      -0.436466825810
 79      -0.028619508335
 80       0.026867180818
 81      -0.045087907221
 82       0.000084855421
 83       0.000000215867
 84       0.000083951467
 85      -0.001098962924
 86      -0.000004055596
 87      -0.001723194725
 88      -0.000671718407
 89       0.000003344976
 90       0.003581844714
 91       0.000155340758
 92      -0.000289026260
 93       0.000000490494
 94       0.000419943713
 95       0.000000818739
 96      -0.005485212314
 97      -0.007183976055
 98       0.000140975285
 99      -0.003650371394
100       0.011465525167
101      -0.000068832833
102      -0.000000131277
103      -0.000001876166
104      -0.000885675914
105      -0.000000708708
106       0.000236021297
107       0.003533689688
108       0.000004967410
109       0.000066379592
110      -0.000075631404
111       0.000052058265
112       0.000000143566
113       0.000188852485
114       0.000000597046
115      -0.000038618137
116      -0.000381562613
117       0.000788580146
118       0.000109345042
119       0.000000067483
120      -0.000124124125
121      -0.000017012577
122      -0.000726608905
123       0.000391737054
124       0.000204821779
125      -0.000138388673
126       0.000062257254
127      -0.000017073761
128      -0.000726123762
129       0.000391204206
130       0.000204579044
131       0.000138625232
132       0.000062139768
133       0.000025103436
134      -0.000125401686
135      -0.006475248461
136      -0.000185373798
137      -0.000640557595
138      -0.000256279906
139       0.000025140287
140      -0.000125780174
141      -0.006476267411
142      -0.000186209182
143       0.000640097121
144      -0.000257143061
145      -0.000067811918
146      -0.000350097941
147      -0.000981673951
148      -0.000053888266
149       0.000079639954
150       0.000160535699
151      -0.000067755893
152      -0.000350850698
153      -0.000984149909
154      -0.000053480957
155      -0.000079609644
156       0.000160648845
157       0.000067654200
158       0.000379396190
159       0.000970162264
160      -0.000051788220
161       0.000087367105
162       0.000166305668
163       0.000067670730
164       0.000378696530
165       0.000968448401
166      -0.000051840419
167      -0.000086985542
168       0.000166495945
169      -0.000025665761
170       0.000127493602
171       0.006659690653
172      -0.000190339120
173      -0.000661484534
174      -0.000265212103
175      -0.000025581583
176       0.000127096677
177       0.006658517469
178      -0.000192368258
179       0.000660121127
180      -0.000266894333
181       0.000017901371
182       0.000746487823
183      -0.000396062571
184       0.000211085769
185      -0.000142220222
186       0.000064077585
187       0.000039831344
188       0.000393568691
189      -0.000812854605
190       0.000113336739
191      -0.000000043795
192      -0.000128062606
193       0.000017890030
194       0.000746753881
195      -0.000396760224
196       0.000210687005
197       0.000143083712
198       0.000063662914
 Sym=     1a
 Ene= -1.01603290921541E+01
 Spin= Alpha
 Occup= 2.000000
  1      -0.005500782999
  2      -0.007201452125
  3       0.000114458972
  4      -0.003587491650
  5       0.012226863874
  6       0.000068208752
  7       0.000000075942
  8      -0.000002752022
  9       0.000959760446
 10       0.000000239500
 11      -0.000192063411
 12      -0.004073711490
 13      -0.000002022850
 14      -0.000285108438
 15      -0.000077101894
 16       0.000062144281
 17       0.000000004688
 18       0.000176036094
 19       0.000000236356
 20      -0.334728452684
 21      -0.436432627303
 22      -0.028516075536
 23       0.026317350349
 24      -0.040161029388
 25      -0.000104368395
 26      -0.000000114606
 27      -0.000081427847
 28       0.001211581228
 29       0.000001840201
 30       0.001777929452
 31      -0.001855293298
 32      -0.000002507611
 33      -0.002435898183
 34       0.000152872727
 35      -0.000289731044
 36       0.000000200578
 37       0.000437976511
 38       0.000000457841
 39      -0.016926116131
 40      -0.022129119544
 41      -0.000703580150
 42      -0.003091054179
 43       0.011744122971
 44      -0.000030008317
 45      -0.000000060746
 46       0.000047039977
 47      -0.001133384626
 48      -0.000000129695
 49       0.000818938288
 50       0.002189078964
 51      -0.000002144665
 52      -0.004027167669
 53       0.000120860367
 54      -0.000119459084
 55       0.000000099365
 56       0.000147094067
 57       0.000000232326
 58      -0.016427181905
 59      -0.021477509748
 60      -0.000679634296
 61      -0.003013159092
 62       0.011310835624
 63       0.000029689890
 64      -0.000000089872
 65      -0.000047629650
 66       0.001114927537
 67       0.000000690930
 68      -0.000781381989
 69      -0.002139022589
 70       0.000000531436
 71       0.003814792609
 72       0.000115454063
 73      -0.000120336703
 74       0.000000318774
 75       0.000147489194
 76       0.000000151275
 77      -0.324418302157
 78      -0.422990216988
 79      -0.027634361923
 80       0.025488948107
 81      -0.038769182306
 82       0.000101712327
 83       0.000000241381
 84       0.000078813027
 85      -0.001177606656
 86      -0.000003969855
 87      -0.001724860106
 88       0.001877432317
 89       0.000005985240
 90       0.002324879912
 91       0.000148136664
 92      -0.000280882151
 93       0.000000536686
 94       0.000424986490
 95       0.000000865022
 96      -0.005331794229
 97      -0.006980129441
 98       0.000109954426
 99      -0.003474329137
100       0.011874039534
101      -0.000066097885
102      -0.000000073246
103       0.000002815822
104      -0.000932476874
105      -0.000001327940
106       0.000184486052
107       0.003965265763
108       0.000006814824
109       0.000283116754
110      -0.000074833574
111       0.000060591607
112       0.000000186168
113       0.000170193683
114       0.000000604518
115       0.000039282870
116       0.000391650322
117      -0.000789304451
118      -0.000129735675
119      -0.000000052897
120       0.000128651064
121       0.000029698188
122       0.000645555586
123      -0.000156919087
124      -0.000199608307
125       0.000131594269
126      -0.000053671890
127       0.000029660910
128       0.000646016104
129      -0.000158647562
130      -0.000199441267
131      -0.000131976178
132      -0.000053715923
133      -0.000016586624
134       0.000058793109
135       0.005960928584
136       0.000180662079
137       0.000666285027
138       0.000302365215
139      -0.000016600438
140       0.000058931149
141       0.005960158821
142       0.000181595621
143      -0.000665675608
144       0.000303150584
145      -0.000003049518
146       0.000920466309
147      -0.000416569446
148      -0.000058569004
149      -0.000243119025
150      -0.000188282606
151      -0.000002998550
152       0.000920417390
153      -0.000419389589
154      -0.000058979701
155       0.000242778442
156      -0.000188751574
157      -0.000005115594
158       0.000908992473
159      -0.000450032743
160       0.000060131536
161       0.000240650163
162       0.000183174404
163      -0.000005169794
164       0.000909078698
165      -0.000447043179
166       0.000060696856
167      -0.000240045058
168       0.000183634684
169      -0.000015819569
170       0.000054978207
171       0.005754569083
172      -0.000174287946
173      -0.000646298288
174      -0.000293690915
175      -0.000015787050
176       0.000054938882
177       0.005755342910
178      -0.000176183138
179       0.000645023641
180      -0.000295481129
181       0.000029184249
182       0.000622473196
183      -0.000145930501
184       0.000193166415
185      -0.000126954730
186       0.000051933965
187       0.000038044734
188       0.000379610871
189      -0.000764267191
190       0.000126276887
191      -0.000000008416
192      -0.000124737485
193       0.000029222522
194       0.000622113127
195      -0.000144594336
196       0.000192784149
197       0.000127620819
198       0.000051460666
 Sym=     1a
 Ene= -1.01582858387015E+01
 Spin= Alpha
 Occup= 2.000000
  1      -0.000690317869
  2      -0.000879883302
  3      -0.000153215734
  4       0.000410079505
  5      -0.001520537945
  6       0.000029913981
  7       0.000000036966
  8      -0.000025176505
  9       0.000358696637
 10       0.000000235977
 11       0.000088285821
 12      -0.000032866887
 13       0.000000581909
 14      -0.001272622124
 15       0.000019127692
 16       0.000069472629
 17       0.000000079414
 18      -0.000063732465
 19      -0.000000057813
 20      -0.016708110822
 21      -0.021727967281
 22      -0.002114290907
 23       0.005443080222
 24      -0.013994526663
 25      -0.000020958417
 26       0.000000006901
 27       0.000044028807
 28      -0.000637098331
 29      -0.000000260918
 30       0.000599550636
 31       0.001972695109
 32      -0.000001473202
 33      -0.003282964990
 34      -0.000161226564
 35       0.000124440541
 36      -0.000000096392
 37      -0.000072710862
 38       0.000000025030
 39       0.329597816300
 40       0.429781316761
 41       0.027640828390
 42      -0.022948598863
 43       0.030347092251
 44      -0.000086944017
 45      -0.000000174234
 46      -0.000052115817
 47      -0.000115915065
 48       0.000001759277
 49       0.002081288057
 50       0.003592591070
 51       0.000001893180
 52      -0.002054910773
 53      -0.000085147893
 54       0.000217356586
 55      -0.000000269073
 56      -0.000572095741
 57      -0.000001010856
 58       0.329675153119
 59       0.429882136613
 60       0.027647645856
 61      -0.022955962703
 62       0.030361232089
 63       0.000086943929
 64       0.000000095738
 65       0.000052148520
 66       0.000115361656
 67      -0.000001848948
 68      -0.002081643581
 69      -0.003590789373
 70      -0.000002640533
 71       0.002055604645
 72      -0.000085190584
 73       0.000217432083
 74      -0.000000658702
 75      -0.000572163078
 76      -0.000000932490
 77      -0.016710675643
 78      -0.021731302299
 79      -0.002114649851
 80       0.005444177543
 81      -0.013998526249
 82       0.000020976223
 83      -0.000000023881
 84      -0.000044031513
 85       0.000637250631
 86      -0.000000088290
 87      -0.000599911953
 88      -0.001972740100
 89       0.000001483149
 90       0.003284221329
 91      -0.000161243576
 92       0.000124425221
 93      -0.000000316551
 94      -0.000072715358
 95      -0.000000115410
 96      -0.000689826049
 97      -0.000879245177
 98      -0.000153152795
 99       0.000410000456
100      -0.001519591333
101      -0.000029931737
102       0.000000031827
103       0.000025191308
104      -0.000358752031
105      -0.000000791433
106      -0.000088400391
107       0.000033185515
108       0.000002748965
109       0.001272611535
110       0.000019115230
111       0.000069594263
112       0.000000029807
113      -0.000063734924
114      -0.000000077816
115       0.000002067143
116      -0.000015778839
117      -0.000726299927
118      -0.000001229422
119      -0.000000009640
120       0.000004685849
121       0.000031380075
122      -0.000123194631
123       0.000942610836
124       0.000042009976
125      -0.000060285888
126      -0.000003675309
127       0.000031414420
128      -0.000123421841
129       0.000940719353
130       0.000042065777
131       0.000060391319
132      -0.000003789180
133       0.000001171600
134      -0.000902804801
135       0.001218795435
136       0.000042755155
137      -0.000168178177
138      -0.000215725323
139       0.000001116488
140      -0.000902251984
141       0.001219840150
142       0.000042467979
143       0.000167941688
144      -0.000215781893
145      -0.000001688055
146      -0.000665183156
147      -0.006476780570
148       0.000332814244
149       0.000762661291
150       0.000314579073
151      -0.000001671519
152      -0.000664934263
153      -0.006477933703
154       0.000334436108
155      -0.000761486365
156       0.000315516221
157      -0.000001645007
158      -0.000664809495
159      -0.006479870967
160      -0.000332861017
161      -0.000762865715
162      -0.000314107630
163      -0.000001686573
164      -0.000664985930
165      -0.006477950013
166      -0.000334411655
167       0.000761518144
168      -0.000316069657
169       0.000001105936
170      -0.000902353858
171       0.001219348862
172      -0.000042831179
173       0.000168261182
174       0.000215483356
175       0.000001143466
176      -0.000902842499
177       0.001219151130
178      -0.000042413367
179      -0.000167855647
180       0.000216096136
181       0.000031432862
182      -0.000123459919
183       0.000940807228
184      -0.000042189945
185       0.000060348857
186       0.000003696559
187       0.000002098990
188      -0.000015744292
189      -0.000726446616
190       0.000001235056
191       0.000000009868
192      -0.000004731336
193       0.000031390237
194      -0.000123400904
195       0.000942663820
196      -0.000041889349
197      -0.000060431827
198       0.000003777956
 Sym=     1a
 Ene= -1.01580715748455E+01
 Spin= Alpha
 Occup= 2.000000
  1       0.000639801760
  2       0.000827181804
  3       0.000050510027
  4       0.000083546944
  5      -0.003329199041
  6      -0.000034212626
  7      -0.000000051996
  8       0.000021548520
  9      -0.000294865047
 10      -0.000000049568
 11      -0.000022700969
 12       0.001360510029
 13       0.000000386019
 14      -0.000086958296
 15      -0.000041388449
 16      -0.000072290433
 17      -0.000000074827
 18       0.000061570696
 19       0.000000061124
 20       0.016028856899
 21       0.020862338226
 22       0.001986463786
 23      -0.005172725719
 24       0.017176784357
 25       0.000083384000
 26      -0.000000031381
 27      -0.000042496113
 28       0.000618121218
 29      -0.000000004007
 30      -0.001361746279
 31      -0.000322686386
 32       0.000000974047
 33       0.005296106073
 34       0.000119270764
 35       0.000070303626
 36       0.000000176540
 37      -0.000015977444
 38       0.000000031443
 39      -0.329745796318
 40      -0.429883927026
 41      -0.028980967101
 42       0.031196562955
 43      -0.060260592789
 44       0.000038048589
 45       0.000000054909
 46       0.000102442724
 47      -0.002509669133
 48      -0.000003051614
 49      -0.001453128116
 50       0.007742712381
 51       0.000009232967
 52       0.002724691378
 53       0.000137678945
 54      -0.000310517525
 55       0.000000111151
 56       0.000295321351
 57       0.000000369728
 58       0.329668460081
 59       0.429783084060
 60       0.028974472724
 61      -0.031191159938
 62       0.060253537928
 63       0.000038029453
 64       0.000000201113
 65       0.000102433458
 66      -0.002509705968
 67      -0.000004710530
 68      -0.001452634089
 69       0.007743538374
 70       0.000011083685
 71       0.002724267846
 72      -0.000137657920
 73       0.000310462482
 74      -0.000000267492
 75      -0.000295185239
 76      -0.000000258493
 77      -0.016026474762
 78      -0.020859246066
 79      -0.001986111731
 80       0.005171639946
 81      -0.017173690869
 82       0.000083385626
 83       0.000000139908
 84      -0.000042493046
 85       0.000617921862
 86      -0.000001397253
 87      -0.001361559319
 88      -0.000322261365
 89       0.000009438345
 90       0.005295306811
 91      -0.000119245380
 92      -0.000070334756
 93      -0.000000328797
 94       0.000016002018
 95      -0.000000045070
 96      -0.000638563599
 97      -0.000825563024
 98      -0.000050406107
 99      -0.000083697592
100       0.003329435748
101      -0.000034190344
102       0.000000024439
103       0.000021532227
104      -0.000294845966
105      -0.000000669412
106      -0.000022553670
107       0.001360517916
108       0.000002114448
109      -0.000087316977
110       0.000041402126
111       0.000072164313
112       0.000000105971
113      -0.000061571971
114      -0.000000055468
115      -0.000007716755
116       0.000101888290
117       0.000385954078
118      -0.000026296136
119      -0.000000021132
120      -0.000007743963
121      -0.000048855013
122       0.000240901612
123      -0.000333026619
124      -0.000005217155
125       0.000067981666
126       0.000006008230
127      -0.000048899407
128       0.000241112800
129      -0.000332291969
130      -0.000005181648
131      -0.000067961371
132       0.000006072070
133       0.000080548804
134       0.000379058110
135       0.000151302545
136      -0.000020782722
137       0.000017364815
138       0.000129587733
139       0.000080470101
140       0.000379281201
141       0.000154556187
142      -0.000020903963
143      -0.000017223603
144       0.000129687487
145      -0.000063043661
146      -0.000595950735
147       0.006611544798
148      -0.000020024607
149      -0.000517576993
150      -0.000201589865
151      -0.000063028267
152      -0.000595569220