 Generated by Multiwfn
GAUSSIAN             29 MOL ORBITALS    360 PRIMITIVES       18 NUCLEI
  C    1    (CENTRE  1)   1.87748084  1.89081684 -0.01140292  CHARGE =  6.0
  C    2    (CENTRE  2)  -0.97167399  1.89075468  0.01484266  CHARGE =  6.0
  C    3    (CENTRE  3)  -2.27486685  1.89369871  2.30754730  CHARGE =  6.0
  C    4    (CENTRE  4)  -4.90302314  1.88994389  2.39515912  CHARGE =  6.0
  C    5    (CENTRE  5)  -6.27133946  1.88361748  0.15548036  CHARGE =  6.0
  C    6    (CENTRE  6)  -4.99393670  1.88083686 -2.14299325  CHARGE =  6.0
  C    7    (CENTRE  7)  -2.35925151  1.88402198 -2.25631031  CHARGE =  6.0
  C    8    (CENTRE  8)  -1.03771163  1.87955592 -4.78078180  CHARGE =  6.0
  H    9    (CENTRE  9)   2.63360584  1.93605100  1.90502883  CHARGE =  1.0
  H   10    (CENTRE 10)   2.63194670  3.52544577 -1.02758970  CHARGE =  1.0
  H   11    (CENTRE 11)   2.63091335  0.20807019 -0.94778989  CHARGE =  1.0
  H   12    (CENTRE 12)  -1.20732126  1.89964434  4.05755595  CHARGE =  1.0
  H   13    (CENTRE 13)  -5.86840338  1.89243167  4.20088147  CHARGE =  1.0
  H   14    (CENTRE 14)  -8.31862567  1.88099446  0.19013103  CHARGE =  1.0
  H   15    (CENTRE 15)  -6.06348158  1.87594117 -3.89178712  CHARGE =  1.0
  H   16    (CENTRE 16)  -2.40077958  1.87081026 -6.32631528  CHARGE =  1.0
  H   17    (CENTRE 17)   0.17921045  0.22272351 -5.00340438  CHARGE =  1.0
  H   18    (CENTRE 18)   0.16995415  3.54168153 -5.01430777  CHARGE =  1.0
CENTRE ASSIGNMENTS    1  1  1  1  1  1  1  1  1  1  1  1  1  1  1  1  1  1  1  1
CENTRE ASSIGNMENTS    1  1  1  1  1  1  1  1  1  1  1  1  1  1  1  2  2  2  2  2
CENTRE ASSIGNMENTS    2  2  2  2  2  2  2  2  2  2  2  2  2  2  2  2  2  2  2  2
CENTRE ASSIGNMENTS    2  2  2  2  2  2  2  2  2  2  3  3  3  3  3  3  3  3  3  3
CENTRE ASSIGNMENTS    3  3  3  3  3  3  3  3  3  3  3  3  3  3  3  3  3  3  3  3
CENTRE ASSIGNMENTS    3  3  3  3  3  4  4  4  4  4  4  4  4  4  4  4  4  4  4  4
CENTRE ASSIGNMENTS    4  4  4  4  4  4  4  4  4  4  4  4  4  4  4  4  4  4  4  4
CENTRE ASSIGNMENTS    5  5  5  5  5  5  5  5  5  5  5  5  5  5  5  5  5  5  5  5
CENTRE ASSIGNMENTS    5  5  5  5  5  5  5  5  5  5  5  5  5  5  5  6  6  6  6  6
CENTRE ASSIGNMENTS    6  6  6  6  6  6  6  6  6  6  6  6  6  6  6  6  6  6  6  6
CENTRE ASSIGNMENTS    6  6  6  6  6  6  6  6  6  6  7  7  7  7  7  7  7  7  7  7
CENTRE ASSIGNMENTS    7  7  7  7  7  7  7  7  7  7  7  7  7  7  7  7  7  7  7  7
CENTRE ASSIGNMENTS    7  7  7  7  7  8  8  8  8  8  8  8  8  8  8  8  8  8  8  8
CENTRE ASSIGNMENTS    8  8  8  8  8  8  8  8  8  8  8  8  8  8  8  8  8  8  8  8
CENTRE ASSIGNMENTS    9  9  9  9  9  9  9  9 10 10 10 10 10 10 10 10 11 11 11 11
CENTRE ASSIGNMENTS   11 11 11 11 12 12 12 12 12 12 12 12 13 13 13 13 13 13 13 13
CENTRE ASSIGNMENTS   14 14 14 14 14 14 14 14 15 15 15 15 15 15 15 15 16 16 16 16
CENTRE ASSIGNMENTS   16 16 16 16 17 17 17 17 17 17 17 17 18 18 18 18 18 18 18 18
TYPE ASSIGNMENTS      1  1  1  1  1  1  1  1  1  1  1  2  2  2  2  3  3  3  3  4
TYPE ASSIGNMENTS      4  4  4  2  3  4  2  3  4  5  6  7  8  9 10  1  1  1  1  1
TYPE ASSIGNMENTS      1  1  1  1  1  1  2  2  2  2  3  3  3  3  4  4  4  4  2  3
TYPE ASSIGNMENTS      4  2  3  4  5  6  7  8  9 10  1  1  1  1  1  1  1  1  1  1
TYPE ASSIGNMENTS      1  2  2  2  2  3  3  3  3  4  4  4  4  2  3  4  2  3  4  5
TYPE ASSIGNMENTS      6  7  8  9 10  1  1  1  1  1  1  1  1  1  1  1  2  2  2  2
TYPE ASSIGNMENTS      3  3  3  3  4  4  4  4  2  3  4  2  3  4  5  6  7  8  9 10
TYPE ASSIGNMENTS      1  1  1  1  1  1  1  1  1  1  1  2  2  2  2  3  3  3  3  4
TYPE ASSIGNMENTS      4  4  4  2  3  4  2  3  4  5  6  7  8  9 10  1  1  1  1  1
TYPE ASSIGNMENTS      1  1  1  1  1  1  2  2  2  2  3  3  3  3  4  4  4  4  2  3
TYPE ASSIGNMENTS      4  2  3  4  5  6  7  8  9 10  1  1  1  1  1  1  1  1  1  1
TYPE ASSIGNMENTS      1  2  2  2  2  3  3  3  3  4  4  4  4  2  3  4  2  3  4  5
TYPE ASSIGNMENTS      6  7  8  9 10  1  1  1  1  1  1  1  1  1  1  1  2  2  2  2
TYPE ASSIGNMENTS      3  3  3  3  4  4  4  4  2  3  4  2  3  4  5  6  7  8  9 10
TYPE ASSIGNMENTS      1  1  1  1  1  2  3  4  1  1  1  1  1  2  3  4  1  1  1  1
TYPE ASSIGNMENTS      1  2  3  4  1  1  1  1  1  2  3  4  1  1  1  1  1  2  3  4
TYPE ASSIGNMENTS      1  1  1  1  1  2  3  4  1  1  1  1  1  2  3  4  1  1  1  1
TYPE ASSIGNMENTS      1  2  3  4  1  1  1  1  1  2  3  4  1  1  1  1  1  2  3  4
EXPONENTS  0.1357535D+05 0.2035233D+04 0.4632256D+03 0.1312002D+03 0.4285302D+02
EXPONENTS  0.1558419D+02 0.6206714D+01 0.2576490D+01 0.5769634D+00 0.2297283D+00
EXPONENTS  0.9516444D-01 0.3469723D+02 0.7958262D+01 0.2378083D+01 0.8143321D+00
EXPONENTS  0.3469723D+02 0.7958262D+01 0.2378083D+01 0.8143321D+00 0.3469723D+02
EXPONENTS  0.7958262D+01 0.2378083D+01 0.8143321D+00 0.2888755D+00 0.2888755D+00
EXPONENTS  0.2888755D+00 0.1005682D+00 0.1005682D+00 0.1005682D+00 0.8000000D+00
EXPONENTS  0.8000000D+00 0.8000000D+00 0.8000000D+00 0.8000000D+00 0.8000000D+00
EXPONENTS  0.1357535D+05 0.2035233D+04 0.4632256D+03 0.1312002D+03 0.4285302D+02
EXPONENTS  0.1558419D+02 0.6206714D+01 0.2576490D+01 0.5769634D+00 0.2297283D+00
EXPONENTS  0.9516444D-01 0.3469723D+02 0.7958262D+01 0.2378083D+01 0.8143321D+00
EXPONENTS  0.3469723D+02 0.7958262D+01 0.2378083D+01 0.8143321D+00 0.3469723D+02
EXPONENTS  0.7958262D+01 0.2378083D+01 0.8143321D+00 0.2888755D+00 0.2888755D+00
EXPONENTS  0.2888755D+00 0.1005682D+00 0.1005682D+00 0.1005682D+00 0.8000000D+00
EXPONENTS  0.8000000D+00 0.8000000D+00 0.8000000D+00 0.8000000D+00 0.8000000D+00
EXPONENTS  0.1357535D+05 0.2035233D+04 0.4632256D+03 0.1312002D+03 0.4285302D+02
EXPONENTS  0.1558419D+02 0.6206714D+01 0.2576490D+01 0.5769634D+00 0.2297283D+00
EXPONENTS  0.9516444D-01 0.3469723D+02 0.7958262D+01 0.2378083D+01 0.8143321D+00
EXPONENTS  0.3469723D+02 0.7958262D+01 0.2378083D+01 0.8143321D+00 0.3469723D+02
EXPONENTS  0.7958262D+01 0.2378083D+01 0.8143321D+00 0.2888755D+00 0.2888755D+00
EXPONENTS  0.2888755D+00 0.1005682D+00 0.1005682D+00 0.1005682D+00 0.8000000D+00
EXPONENTS  0.8000000D+00 0.8000000D+00 0.8000000D+00 0.8000000D+00 0.8000000D+00
EXPONENTS  0.1357535D+05 0.2035233D+04 0.4632256D+03 0.1312002D+03 0.4285302D+02
EXPONENTS  0.1558419D+02 0.6206714D+01 0.2576490D+01 0.5769634D+00 0.2297283D+00
EXPONENTS  0.9516444D-01 0.3469723D+02 0.7958262D+01 0.2378083D+01 0.8143321D+00
EXPONENTS  0.3469723D+02 0.7958262D+01 0.2378083D+01 0.8143321D+00 0.3469723D+02
EXPONENTS  0.7958262D+01 0.2378083D+01 0.8143321D+00 0.2888755D+00 0.2888755D+00
EXPONENTS  0.2888755D+00 0.1005682D+00 0.1005682D+00 0.1005682D+00 0.8000000D+00
EXPONENTS  0.8000000D+00 0.8000000D+00 0.8000000D+00 0.8000000D+00 0.8000000D+00
EXPONENTS  0.1357535D+05 0.2035233D+04 0.4632256D+03 0.1312002D+03 0.4285302D+02
EXPONENTS  0.1558419D+02 0.6206714D+01 0.2576490D+01 0.5769634D+00 0.2297283D+00
EXPONENTS  0.9516444D-01 0.3469723D+02 0.7958262D+01 0.2378083D+01 0.8143321D+00
EXPONENTS  0.3469723D+02 0.7958262D+01 0.2378083D+01 0.8143321D+00 0.3469723D+02
EXPONENTS  0.7958262D+01 0.2378083D+01 0.8143321D+00 0.2888755D+00 0.2888755D+00
EXPONENTS  0.2888755D+00 0.1005682D+00 0.1005682D+00 0.1005682D+00 0.8000000D+00
EXPONENTS  0.8000000D+00 0.8000000D+00 0.8000000D+00 0.8000000D+00 0.8000000D+00
EXPONENTS  0.1357535D+05 0.2035233D+04 0.4632256D+03 0.1312002D+03 0.4285302D+02
EXPONENTS  0.1558419D+02 0.6206714D+01 0.2576490D+01 0.5769634D+00 0.2297283D+00
EXPONENTS  0.9516444D-01 0.3469723D+02 0.7958262D+01 0.2378083D+01 0.8143321D+00
EXPONENTS  0.3469723D+02 0.7958262D+01 0.2378083D+01 0.8143321D+00 0.3469723D+02
EXPONENTS  0.7958262D+01 0.2378083D+01 0.8143321D+00 0.2888755D+00 0.2888755D+00
EXPONENTS  0.2888755D+00 0.1005682D+00 0.1005682D+00 0.1005682D+00 0.8000000D+00
EXPONENTS  0.8000000D+00 0.8000000D+00 0.8000000D+00 0.8000000D+00 0.8000000D+00
EXPONENTS  0.1357535D+05 0.2035233D+04 0.4632256D+03 0.1312002D+03 0.4285302D+02
EXPONENTS  0.1558419D+02 0.6206714D+01 0.2576490D+01 0.5769634D+00 0.2297283D+00
EXPONENTS  0.9516444D-01 0.3469723D+02 0.7958262D+01 0.2378083D+01 0.8143321D+00
EXPONENTS  0.3469723D+02 0.7958262D+01 0.2378083D+01 0.8143321D+00 0.3469723D+02
EXPONENTS  0.7958262D+01 0.2378083D+01 0.8143321D+00 0.2888755D+00 0.2888755D+00
EXPONENTS  0.2888755D+00 0.1005682D+00 0.1005682D+00 0.1005682D+00 0.8000000D+00
EXPONENTS  0.8000000D+00 0.8000000D+00 0.8000000D+00 0.8000000D+00 0.8000000D+00
EXPONENTS  0.1357535D+05 0.2035233D+04 0.4632256D+03 0.1312002D+03 0.4285302D+02
EXPONENTS  0.1558419D+02 0.6206714D+01 0.2576490D+01 0.5769634D+00 0.2297283D+00
EXPONENTS  0.9516444D-01 0.3469723D+02 0.7958262D+01 0.2378083D+01 0.8143321D+00
EXPONENTS  0.3469723D+02 0.7958262D+01 0.2378083D+01 0.8143321D+00 0.3469723D+02
EXPONENTS  0.7958262D+01 0.2378083D+01 0.8143321D+00 0.2888755D+00 0.2888755D+00
EXPONENTS  0.2888755D+00 0.1005682D+00 0.1005682D+00 0.1005682D+00 0.8000000D+00
EXPONENTS  0.8000000D+00 0.8000000D+00 0.8000000D+00 0.8000000D+00 0.8000000D+00
EXPONENTS  0.3406134D+02 0.5123575D+01 0.1164663D+01 0.3272304D+00 0.1030724D+00
EXPONENTS  0.8000000D+00 0.8000000D+00 0.8000000D+00 0.3406134D+02 0.5123575D+01
EXPONENTS  0.1164663D+01 0.3272304D+00 0.1030724D+00 0.8000000D+00 0.8000000D+00
EXPONENTS  0.8000000D+00 0.3406134D+02 0.5123575D+01 0.1164663D+01 0.3272304D+00
EXPONENTS  0.1030724D+00 0.8000000D+00 0.8000000D+00 0.8000000D+00 0.3406134D+02
EXPONENTS  0.5123575D+01 0.1164663D+01 0.3272304D+00 0.1030724D+00 0.8000000D+00
EXPONENTS  0.8000000D+00 0.8000000D+00 0.3406134D+02 0.5123575D+01 0.1164663D+01
EXPONENTS  0.3272304D+00 0.1030724D+00 0.8000000D+00 0.8000000D+00 0.8000000D+00
EXPONENTS  0.3406134D+02 0.5123575D+01 0.1164663D+01 0.3272304D+00 0.1030724D+00
EXPONENTS  0.8000000D+00 0.8000000D+00 0.8000000D+00 0.3406134D+02 0.5123575D+01
EXPONENTS  0.1164663D+01 0.3272304D+00 0.1030724D+00 0.8000000D+00 0.8000000D+00
EXPONENTS  0.8000000D+00 0.3406134D+02 0.5123575D+01 0.1164663D+01 0.3272304D+00
EXPONENTS  0.1030724D+00 0.8000000D+00 0.8000000D+00 0.8000000D+00 0.3406134D+02
EXPONENTS  0.5123575D+01 0.1164663D+01 0.3272304D+00 0.1030724D+00 0.8000000D+00
EXPONENTS  0.8000000D+00 0.8000000D+00 0.3406134D+02 0.5123575D+01 0.1164663D+01
EXPONENTS  0.3272304D+00 0.1030724D+00 0.8000000D+00 0.8000000D+00 0.8000000D+00
MO    1     MO 0.0        OCC NO =    2.0000000  ORB. ENERGY =  -10.177165
  0.18149426D-02  0.33873626D-02  0.57813344D-02  0.89847712D-02  0.12034468D-01
  0.12362005D-01  0.81720064D-02  0.24216022D-02 -0.19318340D-03  0.80912695D-03
  0.44117282D-03  0.15611545D-03  0.16663203D-03  0.14592606D-03  0.92150487D-04
 -0.28793760D-05 -0.30733428D-05 -0.26914440D-05 -0.16996134D-05 -0.70966416D-04
 -0.75747009D-04 -0.66334559D-04 -0.41889448D-04 -0.27225085D-03  0.49681471D-05
  0.11661925D-03  0.21712111D-04 -0.18694547D-05  0.19296985D-06 -0.46855052D-03
  0.21821120D-03  0.25033932D-03  0.28068182D-05 -0.96591717D-04 -0.45585562D-05
  0.18078533D+00  0.33741313D+00  0.57587520D+00  0.89496760D+00  0.11987460D+01
  0.12313718D+01  0.79791026D+00  0.23644393D+00  0.12595312D-01 -0.47246727D-02
  0.84264220D-03  0.18868924D-04  0.20140013D-04  0.17637382D-04  0.11137787D-04
 -0.19621806D-05 -0.20943612D-05 -0.18341124D-05 -0.11582191D-05 -0.24927846D-04
 -0.26607089D-04 -0.23300848D-04 -0.14714195D-04 -0.11881905D-03  0.87709374D-06
 -0.62040017D-04 -0.43298080D-03 -0.17464319D-05 -0.19107196D-03  0.72909668D-05
  0.35384863D-04 -0.42675830D-04 -0.24017727D-05 -0.77321805D-03 -0.90626163D-06
  0.42224814D-02  0.78807315D-02  0.13450330D-01  0.20903156D-01  0.27998304D-01
  0.28760323D-01  0.19051356D-01  0.56454687D-02 -0.21353309D-03  0.91340987D-03
 -0.14125981D-02 -0.42799102D-04 -0.45682227D-04 -0.40005677D-04 -0.25263087D-04
  0.97662649D-06  0.10424161D-05  0.91288374D-06  0.57647471D-06  0.19500311D-03
  0.20813933D-03  0.18227559D-03  0.11510477D-03  0.14505876D-03 -0.64095223D-06
 -0.14409274D-04  0.51211604D-03  0.20811543D-05  0.10449041D-03  0.21409731D-03
  0.10963793D-03 -0.32373525D-03  0.30153977D-05  0.97589979D-03 -0.46931682D-07
 -0.11124040D-03 -0.20761624D-03 -0.35434616D-03 -0.55068934D-03 -0.73760955D-03
 -0.75768477D-03 -0.28988117D-03 -0.85900190D-04 -0.27697606D-03  0.22872121D-03
  0.10670501D-02 -0.15302876D-03 -0.16333741D-03 -0.14304083D-03 -0.90328503D-04
 -0.12736809D-06 -0.13594814D-06 -0.11905499D-06 -0.75181746D-07  0.19079633D-03
  0.20364916D-03  0.17834337D-03  0.11262162D-03  0.40307046D-04  0.25545311D-06
 -0.84237567D-04  0.20068301D-03 -0.15570238D-06  0.12613486D-03 -0.39157546D-04
  0.11271680D-04  0.27885866D-04  0.20420211D-06  0.15798103D-03  0.17678237D-06
 -0.11405659D-03 -0.21287230D-03 -0.36331687D-03 -0.56463071D-03 -0.75628303D-03
 -0.77686649D-03 -0.30205306D-03 -0.89507072D-04 -0.27829561D-03  0.23304155D-03
  0.10383345D-02 -0.23901362D-03 -0.25511457D-03 -0.22341360D-03 -0.14108291D-03
 -0.85066158D-07 -0.90796567D-07 -0.79514034D-07 -0.50212122D-07  0.48550260D-04
  0.51820807D-04  0.45381467D-04  0.28657831D-04  0.93319398D-04 -0.39780298D-07
  0.12320771D-05 -0.28660285D-04 -0.39663919D-07 -0.23818704D-03 -0.50094704D-04
  0.11513069D-04  0.38581635D-04  0.13319206D-07  0.14337913D-03  0.32781183D-06
  0.41518067D-02  0.77488261D-02  0.13225202D-01  0.20553285D-01  0.27529677D-01
  0.28278941D-01  0.18736838D-01  0.55522679D-02 -0.21600502D-03  0.90058697D-03
 -0.13435957D-02 -0.19421915D-03 -0.20730256D-03 -0.18154280D-03 -0.11464202D-03
 -0.49297962D-06 -0.52618878D-06 -0.46080368D-06 -0.29099178D-06 -0.51641261D-04
 -0.55120031D-04 -0.48270724D-04 -0.30482361D-04  0.77305401D-04 -0.90538615D-08
 -0.12176878D-03  0.15414522D-03 -0.12239873D-05 -0.50392488D-03 -0.59974380D-03
  0.10692302D-03  0.49282078D-03 -0.18020381D-05  0.12895036D-03  0.17649222D-05
  0.17781689D+00  0.33187291D+00  0.56641951D+00  0.88027251D+00  0.11790630D+01
  0.12111531D+01  0.78481905D+00  0.23256462D+00  0.12377804D-01 -0.46184070D-02
  0.74197767D-03  0.30519538D-04  0.32575461D-04  0.28527580D-04  0.18014812D-04
 -0.26221707D-06 -0.27988110D-06 -0.24510261D-06 -0.15477924D-06 -0.42403775D-05
 -0.45260269D-05 -0.39636152D-05 -0.25029736D-05  0.24818454D-05  0.51315066D-06
  0.13162183D-03 -0.12793359D-04  0.14350645D-05  0.48368180D-03  0.28064755D-03
  0.41009355D-04 -0.32165691D-03  0.18578209D-08 -0.50887917D-03 -0.29568908D-05
  0.17894571D-02  0.33397970D-02  0.57001525D-02  0.88586064D-02  0.11865479D-01
  0.12188417D-01  0.80576241D-02  0.23877075D-02 -0.19004028D-03  0.79209083D-03
  0.48126102D-03  0.13582953D-03  0.14497957D-03  0.12696417D-03  0.80176290D-04
 -0.27081696D-06 -0.28906031D-06 -0.25314120D-06 -0.15985551D-06 -0.10869555D-03
 -0.11601773D-03 -0.10160117D-03 -0.64159876D-04 -0.22710639D-03 -0.81285032D-06
  0.18367003D-03  0.37368644D-05 -0.31576980D-08 -0.13453219D-04  0.14052701D-03
  0.21637910D-03 -0.35690611D-03 -0.81191790D-06  0.52071413D-03 -0.21786413D-05
 -0.16475724D-04 -0.29735315D-04 -0.43899266D-04 -0.20997928D-03 -0.10413515D-03
  0.92189808D-04  0.66319134D-05  0.19584414D-03 -0.13974833D-06 -0.25221717D-06
 -0.37235686D-06 -0.21603149D-03 -0.12889379D-03  0.17723846D-03  0.15310956D-03
 -0.69483707D-04 -0.65690292D-06 -0.11855755D-05 -0.17503058D-05 -0.20860966D-03
 -0.13528733D-03  0.17308806D-03 -0.15436385D-03 -0.59421049D-04 -0.21548685D-04
 -0.38890973D-04 -0.57416078D-04 -0.25359930D-03 -0.40653298D-04 -0.14384686D-04
  0.60338878D-06  0.27392370D-03  0.86231389D-05  0.15563003D-04  0.22976196D-04
 -0.30569573D-04 -0.13441034D-03 -0.96408497D-06  0.23249578D-06 -0.95129260D-04
  0.86948126D-05  0.15692360D-04  0.23167170D-04 -0.31577857D-04 -0.13645551D-03
  0.83804441D-04 -0.36895070D-07  0.44248677D-04 -0.21179548D-04 -0.38224756D-04
 -0.56432520D-04 -0.25184415D-03 -0.44267682D-04 -0.24705186D-03 -0.32533146D-06
 -0.10959661D-03 -0.16097464D-04 -0.29052632D-04 -0.42891398D-04 -0.20994815D-03
 -0.10892000D-03 -0.13335262D-03 -0.10810112D-05 -0.16875151D-03  0.50899923D-06
  0.91863959D-06  0.13562192D-05 -0.21387891D-03 -0.13267642D-03  0.13711698D-03
 -0.15308372D-03 -0.12648486D-03  0.18151367D-06  0.32759508D-06  0.48363986D-06
 -0.21205032D-03 -0.13196858D-03  0.13539257D-03  0.15097989D-03 -0.12558761D-03
MO    2     MO 0.0        OCC NO =    2.0000000  ORB. ENERGY =  -10.176672
 -0.19911744D-02 -0.37162770D-02 -0.63427045D-02 -0.98571965D-02 -0.13203020D-01
 -0.13562361D-01 -0.88895184D-02 -0.26342218D-02  0.19237572D-03 -0.11563471D-02
  0.22191167D-02  0.17003268D-03  0.18148679D-03  0.15893494D-03  0.10036543D-03
  0.31830738D-05  0.33974989D-05  0.29753200D-05  0.18788775D-05  0.35266181D-04
  0.37641857D-04  0.32964417D-04  0.20816619D-04  0.33539707D-03 -0.36156970D-05
 -0.94020255D-05 -0.44204747D-03  0.55875139D-05  0.14795717D-03  0.20168521D-03
 -0.95637550D-04 -0.10604766D-03 -0.17531945D-05 -0.14963103D-03 -0.36233971D-05
 -0.17785720D+00 -0.33194815D+00 -0.56654792D+00 -0.88047207D+00 -0.11793303D+01
 -0.12114276D+01 -0.78433122D+00 -0.23242006D+00 -0.13123400D-01  0.65208258D-02
 -0.80246810D-02 -0.13510461D-03 -0.14420582D-03 -0.12628656D-03 -0.79748391D-04
  0.43904710D-06  0.46862314D-06  0.41039124D-06  0.25915696D-06 -0.55960957D-04
 -0.59730720D-04 -0.52308481D-04 -0.33032154D-04  0.19997298D-03  0.30302905D-06
  0.70343813D-04  0.38813656D-03 -0.24564684D-05 -0.79885035D-03  0.20193473D-03
  0.33161379D-03 -0.53354851D-03 -0.29518498D-05 -0.82295867D-03 -0.42924499D-05
 -0.45673853D-02 -0.85244513D-02 -0.14548990D-01 -0.22610584D-01 -0.30285283D-01
 -0.31109545D-01 -0.20337847D-01 -0.60266933D-02 -0.94334238D-04 -0.94992471D-03
  0.56126448D-02  0.31055205D-04  0.33147212D-04  0.29028284D-04  0.18331000D-04
  0.80161706D-06  0.85561731D-06  0.74929687D-06  0.47317164D-06  0.96881654D-04
  0.10340800D-03  0.90558353D-04  0.57186472D-04 -0.15060267D-03 -0.62119295D-06
  0.70703219D-04  0.35083334D-04 -0.10613615D-05 -0.10075232D-02 -0.76004912D-04
 -0.13544197D-03  0.21144688D-03 -0.13836464D-05 -0.78550788D-03 -0.53769736D-06
 -0.16495536D-03 -0.30786848D-03 -0.52545028D-03 -0.81660223D-03 -0.10937811D-02
 -0.11235501D-02 -0.70990413D-03 -0.21036516D-03 -0.98874407D-04  0.32287373D-03
 -0.32319251D-02  0.48517839D-04  0.51786202D-04  0.45351162D-04  0.28638694D-04
 -0.54738802D-07 -0.58426236D-07 -0.51166094D-07 -0.32310751D-07 -0.11177705D-04
 -0.11930681D-04 -0.10448155D-04 -0.65978796D-05  0.43925865D-04  0.27829304D-06
  0.43157901D-04 -0.38694814D-03  0.53606605D-06  0.78393830D-03  0.58729974D-04
  0.69564005D-05 -0.65686375D-04 -0.26173282D-06 -0.14544343D-03 -0.69380640D-06
  0.16305664D-03  0.30432475D-03  0.51940207D-03  0.80720271D-03  0.10811911D-02
  0.11106175D-02  0.70492543D-03  0.20888983D-03  0.94202053D-04 -0.31916668D-03
  0.32499182D-02 -0.36164820D-04 -0.38601032D-04 -0.33804403D-04 -0.21347060D-04
  0.90114598D-07  0.96185092D-07  0.84232971D-07  0.53192072D-07  0.38907099D-04
  0.41528043D-04  0.36367699D-04  0.22965749D-04  0.20028865D-04  0.59337327D-07
  0.58772686D-04  0.87389197D-03  0.14501225D-05  0.94751416D-05 -0.20073497D-04
 -0.68199509D-05  0.26893448D-04  0.39189797D-06  0.18838598D-03  0.43235139D-06
  0.46412435D-02  0.86622984D-02  0.14784258D-01  0.22976215D-01  0.30775020D-01
  0.31612611D-01  0.20671026D-01  0.61254238D-02  0.90268618D-04  0.96607368D-03
 -0.56381005D-02  0.68706882D-04  0.73335263D-04  0.64222500D-04  0.40555709D-04
  0.35327120D-06  0.37706901D-06  0.33021379D-06  0.20852589D-06  0.71040208D-04
  0.75825771D-04  0.66403534D-04  0.41933005D-04  0.13334646D-03 -0.17519156D-06
 -0.10397012D-03 -0.91027457D-03 -0.21352934D-05 -0.43666837D-03 -0.48036294D-03
  0.13687686D-03  0.34348608D-03 -0.12185723D-05  0.22700458D-03  0.12819312D-05
  0.18082458D+00  0.33748638D+00  0.57600022D+00  0.89516188D+00  0.11990062D+01
  0.12316391D+01  0.79742746D+00  0.23630086D+00  0.13331677D-01 -0.66009570D-02
  0.80438136D-02  0.12626955D-04  0.13477559D-04  0.11802815D-04  0.74533308D-05
 -0.39529848D-06 -0.42192743D-06 -0.36949802D-06 -0.23333340D-06 -0.14748222D-03
 -0.15741723D-03 -0.13785630D-03 -0.87054538D-04 -0.28786444D-04  0.67558283D-06
  0.21389366D-03 -0.88869393D-03 -0.84663464D-06 -0.13267086D-04  0.50733495D-04
 -0.33051325D-03  0.27977975D-03  0.32862402D-05  0.10699878D-02  0.44653681D-05
  0.20288702D-02  0.37866315D-02  0.64627812D-02  0.10043808D-01  0.13452972D-01
  0.13819116D-01  0.90589741D-02  0.26844365D-02 -0.19647397D-03  0.11717215D-02
 -0.22173111D-02 -0.43397332D-04 -0.46320756D-04 -0.40564861D-04 -0.25616205D-04
  0.39651674D-06  0.42322776D-06  0.37063677D-06  0.23405250D-06  0.16535078D-03
  0.17648949D-03  0.15455861D-03  0.97601840D-04 -0.16488924D-03  0.51754326D-06
  0.29861110D-03  0.33421027D-03 -0.71092208D-06 -0.32698358D-03 -0.16619739D-04
  0.99458140D-04 -0.82838401D-04  0.91925095D-06  0.34409167D-03 -0.40942283D-06
  0.28222804D-04  0.50936393D-04  0.75199145D-04  0.54287722D-04 -0.28886497D-03
 -0.14775362D-03 -0.12157676D-05 -0.12609391D-03  0.40746371D-04  0.73538871D-04
  0.10856796D-03 -0.50954215D-04 -0.30090230D-04 -0.67426596D-04 -0.75841323D-04
  0.65193948D-04  0.40951241D-04  0.73908621D-04  0.10911383D-03 -0.50548811D-04
 -0.21681551D-04 -0.72668390D-04  0.75321483D-04  0.65199221D-04  0.21108373D-04
  0.38096299D-04  0.56242874D-04  0.18717185D-03 -0.60198975D-04 -0.75096144D-04
 -0.87198588D-06 -0.26484889D-03  0.98044496D-05  0.17695028D-04  0.26123777D-04
 -0.11663702D-03 -0.25080866D-03 -0.23310510D-06  0.37173096D-06  0.47570491D-04
 -0.96690102D-05 -0.17450587D-04 -0.25762901D-04  0.11619666D-03  0.24862548D-03
  0.43843526D-04 -0.61307008D-07  0.22413661D-04 -0.21523409D-04 -0.38845354D-04
 -0.57348729D-04 -0.19144653D-03  0.59921166D-04 -0.20567805D-03 -0.59425102D-06
 -0.18987271D-03 -0.28642728D-04 -0.51694271D-04 -0.76318027D-04 -0.56715322D-04
  0.28820159D-03 -0.46420033D-04 -0.29622176D-06 -0.19084900D-03 -0.40806905D-04
 -0.73648124D-04 -0.10872925D-03  0.47022023D-04  0.23119747D-04  0.92713283D-04
 -0.78532783D-04 -0.35624926D-04 -0.40820825D-04 -0.73673247D-04 -0.10876634D-03
  0.46706672D-04  0.24726377D-04  0.92722612D-04  0.78599031D-04 -0.36426308D-04
MO    3     MO 0.0        OCC NO =    2.0000000  ORB. ENERGY =  -10.166403
  0.72792208D-03  0.13585752D-02  0.23187295D-02  0.36035372D-02  0.48266841D-02
  0.49580501D-02  0.31774376D-02  0.94156681D-03  0.97049938D-04  0.51245875D-04
 -0.39162358D-03 -0.88124683D-04 -0.94061128D-04 -0.82372935D-04 -0.52017482D-04
  0.62758794D-06  0.66986487D-06  0.58662634D-06  0.37044723D-06  0.38685862D-05
  0.41291903D-05  0.36160902D-05  0.22835159D-05  0.39274579D-04  0.68618652D-06
  0.20189701D-04  0.11157148D-03  0.22871484D-05  0.64805812D-04 -0.47152070D-04
  0.54041618D-04 -0.68895474D-05  0.62133403D-06 -0.29231031D-04 -0.30417313D-05
  0.17385120D-02  0.32447144D-02  0.55378716D-02  0.86064057D-02  0.11527674D-01
  0.11841418D-01  0.73265740D-02  0.21710761D-02  0.45576202D-03 -0.31425052D-03
 -0.57197206D-03 -0.29071237D-03 -0.31029597D-03 -0.27173807D-03 -0.17159921D-03
 -0.25446969D-06 -0.27161183D-06 -0.23786089D-06 -0.15020619D-06 -0.58679673D-04
 -0.62632579D-04 -0.54849750D-04 -0.34636934D-04  0.32207330D-04  0.41178286D-07
  0.15736145D-03  0.15064999D-03 -0.14732076D-05 -0.34953321D-03 -0.28556669D-04
 -0.13716109D-03  0.16571776D-03 -0.20755969D-05 -0.48203027D-03  0.73186183D-06
 -0.77535819D-01 -0.14471087D+00 -0.24698329D+00 -0.38383671D+00 -0.51412221D+00
 -0.52811487D+00 -0.34249931D+00 -0.10149247D+00 -0.49312423D-02  0.11268370D-02
  0.53841923D-03 -0.85761188D-04 -0.91538417D-04 -0.80163700D-04 -0.50622379D-04
 -0.50953900D-06 -0.54386366D-06 -0.47628225D-06 -0.30076631D-06 -0.15335900D-03
 -0.16368990D-03 -0.14334952D-03 -0.90523438D-04 -0.13914764D-03  0.10414326D-06
  0.59778447D-04  0.28311586D-03 -0.26533502D-06 -0.41549054D-03  0.50030685D-03
  0.79199540D-04 -0.57950639D-03  0.87208583D-06 -0.99467659D-04 -0.35923273D-05
 -0.16187907D+00 -0.30212697D+00 -0.51565104D+00 -0.80137324D+00 -0.10733830D+01
 -0.11025968D+01 -0.71464700D+00 -0.21177061D+00 -0.10893744D-01  0.32440337D-02
 -0.27308309D-03 -0.21653381D-04 -0.23112042D-04 -0.20240101D-04 -0.12781372D-04
  0.71635375D-07  0.76461031D-07  0.66959855D-07  0.42284315D-07  0.44313694D-04
  0.47298848D-04  0.41421414D-04  0.26157107D-04  0.10244706D-03 -0.53909961D-06
 -0.28393777D-03  0.40381942D-04  0.65250039D-06  0.28699690D-03  0.19153765D-04
  0.20569086D-03 -0.22484462D-03  0.17268976D-05  0.11298333D-02 -0.43687922D-06
 -0.16145462D+00 -0.30133478D+00 -0.51429899D+00 -0.79927201D+00 -0.10705685D+01
 -0.10997058D+01 -0.71277535D+00 -0.21121599D+00 -0.10862732D-01  0.32278865D-02
 -0.23648683D-03 -0.48602311D-04 -0.51876364D-04 -0.45430120D-04 -0.28688555D-04
 -0.18551694D-06 -0.19801413D-06 -0.17340856D-06 -0.10950535D-06 -0.69488462D-06
 -0.74169493D-06 -0.64953068D-06 -0.41017053D-06  0.29785367D-03  0.46770808D-06
  0.37926175D-04 -0.22801883D-03 -0.61761096D-06 -0.16730948D-03 -0.63240221D-03
  0.20440365D-03  0.42799856D-03 -0.11848923D-05  0.46157071D-03  0.14931613D-05
 -0.77665922D-01 -0.14495369D+00 -0.24739772D+00 -0.38448077D+00 -0.51498489D+00
 -0.52900103D+00 -0.34307262D+00 -0.10166236D+00 -0.49413800D-02  0.11337172D-02
  0.50595895D-03  0.97744734D-04  0.10432922D-03  0.91365101D-04  0.57695923D-04
  0.47603138D-06  0.50809883D-06  0.44496162D-06  0.28098772D-06  0.14662830D-03
  0.15650579D-03  0.13705812D-03  0.86550494D-04 -0.11729694D-03 -0.77434183D-07
  0.96756619D-04  0.49568829D-03  0.53932094D-06 -0.68284747D-04 -0.31424313D-03
  0.79715244D-04  0.23452789D-03 -0.29210482D-05 -0.93250714D-03 -0.50235053D-06
  0.17429383D-02  0.32529755D-02  0.55519711D-02  0.86283177D-02  0.11557023D-01
  0.11871566D-01  0.73456903D-02  0.21767409D-02  0.45681559D-03 -0.31626535D-03
 -0.55212505D-03 -0.80393549D-04 -0.85809192D-04 -0.75146398D-04 -0.47454015D-04
  0.39836181D-06  0.42519711D-06  0.37236141D-06  0.23514159D-06  0.28523548D-03
  0.30445012D-03  0.26661864D-03  0.16836635D-03 -0.12514050D-03 -0.23498713D-06
 -0.10059654D-03  0.37464496D-03  0.74165321D-06  0.30931078D-04  0.32139956D-03
 -0.13730364D-03 -0.18409593D-03  0.72103322D-06 -0.12323115D-03  0.60683029D-07
  0.77132904D-03  0.14395888D-02  0.24569984D-02  0.38184210D-02  0.51145057D-02
  0.52537052D-02  0.33686771D-02  0.99823661D-03  0.10024654D-03  0.50530988D-04
 -0.38561601D-03 -0.43896931D-04 -0.46854011D-04 -0.41031853D-04 -0.25911104D-04
  0.27291356D-06  0.29129815D-06  0.25510096D-06  0.16109308D-06  0.76528637D-04
  0.81683923D-04  0.71533742D-04  0.45172668D-04  0.13539224D-06 -0.20912301D-06
 -0.43830768D-04 -0.70474085D-05 -0.39683931D-06 -0.12811412D-03 -0.35105937D-05
  0.53996690D-04 -0.50486096D-04 -0.22697826D-06  0.15478843D-04 -0.45744451D-06
 -0.30411786D-05 -0.54887059D-05 -0.81031649D-05  0.55176840D-04 -0.79413389D-04
 -0.76752423D-05  0.80893393D-06  0.13361945D-04 -0.64522465D-05 -0.11644986D-04
 -0.17191893D-04  0.37104587D-04  0.42263144D-04 -0.13493161D-05  0.97977749D-05
  0.32689630D-06 -0.70734087D-05 -0.12766057D-04 -0.18846968D-04  0.41693579D-04
  0.44019427D-04 -0.56305667D-05 -0.10732718D-04  0.43576948D-05  0.46774259D-04
  0.84417977D-04  0.12462916D-03 -0.57246037D-05  0.16653607D-03 -0.33126497D-03
 -0.15879838D-05 -0.34037305D-03  0.94619090D-04  0.17076812D-03  0.25211084D-03
 -0.65777960D-04 -0.56811302D-04  0.44779865D-03 -0.13973009D-05 -0.94846267D-03
  0.94353564D-04  0.17028890D-03  0.25140335D-03 -0.63875122D-04 -0.54632041D-04
  0.10465577D-02  0.14204446D-05  0.34932854D-04  0.46803209D-04  0.84470227D-04
  0.12470630D-03 -0.71280060D-05  0.16563532D-03  0.15141708D-03  0.10243146D-05
  0.44989232D-03 -0.29142432D-05 -0.52596135D-05 -0.77649479D-05  0.54850453D-04
 -0.80100242D-04 -0.15122126D-04  0.66029568D-07  0.19323889D-06 -0.67642731D-05
 -0.12208130D-04 -0.18023282D-04  0.39077196D-04  0.42990443D-04 -0.33051862D-05
 -0.10436223D-04  0.27265609D-05 -0.67688616D-05 -0.12216412D-04 -0.18035508D-04
  0.39617209D-04  0.42018434D-04 -0.40882986D-05  0.10972114D-04  0.18217889D-05
MO    4     MO 0.0        OCC NO =    2.0000000  ORB. ENERGY =  -10.166072
  0.22364864D-02  0.41741211D-02  0.71241236D-02  0.11071600D-01  0.14829627D-01
  0.15233239D-01  0.98165583D-02  0.29089306D-02  0.16693884D-03 -0.11605363D-03
  0.10030318D-03 -0.15830557D-04 -0.16896969D-04 -0.14797324D-04 -0.93443255D-05
  0.15412687D-05  0.16450949D-05  0.14406727D-05  0.90976686D-06 -0.38855662D-04
 -0.41473140D-04 -0.36319618D-04 -0.22935387D-04 -0.54206893D-04 -0.63401757D-05
  0.36714646D-04  0.51594651D-04 -0.89717000D-06  0.14024127D-03  0.33231551D-04
  0.73936378D-04 -0.10716793D-03 -0.44074264D-05 -0.90952127D-04 -0.45452582D-05
  0.37455635D-02  0.69906241D-02  0.11931151D-01  0.18542201D-01  0.24835971D-01
  0.25511922D-01  0.16368147D-01  0.48503561D-02  0.51876277D-03 -0.11107924D-02
  0.33693680D-02  0.95555375D-04  0.10199238D-03  0.89318637D-04  0.56403607D-04
 -0.21196258D-05 -0.22624126D-05 -0.19812814D-05 -0.12511546D-05 -0.19880764D-03
 -0.21220015D-03 -0.18583180D-03 -0.11735047D-03  0.13208080D-03  0.35184006D-05
  0.56823152D-03 -0.22475985D-03 -0.59789879D-05 -0.25294967D-02 -0.11910383D-03
 -0.54066840D-04  0.17317067D-03  0.19429662D-05 -0.94182563D-03  0.24201252D-06
 -0.14156099D+00 -0.26420582D+00 -0.45092963D+00 -0.70078970D+00 -0.93865840D+00
 -0.96420550D+00 -0.62450569D+00 -0.18505913D+00 -0.10060418D-01  0.35507735D-02
  0.14564498D-02  0.11549277D-03  0.12327284D-03  0.10795475D-03  0.68172083D-04
  0.20462868D-05  0.21841332D-05  0.19127291D-05  0.12078646D-05  0.27370005D-03
  0.29213762D-03  0.25583611D-03  0.16155732D-03 -0.68111157D-04 -0.21597789D-05
 -0.34633843D-03  0.89592402D-03  0.16583551D-05 -0.27938231D-03  0.13134854D-03
  0.30462465D-03 -0.43597319D-03 -0.12915309D-05 -0.37833728D-03 -0.34638444D-05
 -0.10955445D+00 -0.20446964D+00 -0.34897573D+00 -0.54234316D+00 -0.72643042D+00
 -0.74620139D+00 -0.48329646D+00 -0.14321474D+00 -0.78316645D-02  0.30917869D-02
 -0.16075601D-02 -0.13295513D-03 -0.14191154D-03 -0.12427737D-03 -0.78479614D-04