[Molden Format]
[Title]
 Molden file created by orca_2mkl for BaseName=./OXL

[Atoms] AU
C    1   6          1.8774808428         1.8908168415        -0.0114029225 
C    2   6         -0.9716739934         1.8907546786         0.0148426563 
C    3   6         -2.2748668515         1.8936987074         2.3075472981 
C    4   6         -4.9030231423         1.8899438920         2.3951591246 
C    5   6         -6.2713394584         1.8836174792         0.1554803602 
C    6   6         -4.9939366985         1.8808368588        -2.1429932542 
C    7   6         -2.3592515117         1.8840219755        -2.2563103054 
C    8   6         -1.0377116263         1.8795559206        -4.7807817999 
H    9   1          2.6336058373         1.9360509983         1.9050288277 
H   10   1          2.6319466966         3.5254457732        -1.0275897000 
H   11   1          2.6309133466         0.2080701933        -0.9477898902 
H   12   1         -1.2073212614         1.8996443394         4.0575559512 
H   13   1         -5.8684033802         1.8924316740         4.2008814675 
H   14   1         -8.3186256672         1.8809944607         0.1901310348 
H   15   1         -6.0634815809         1.8759411744        -3.8917871221 
H   16   1         -2.4007795839         1.8708102631        -6.3263152758 
H   17   1          0.1792104511         0.2227235065        -5.0034043830 
H   18   1          0.1699541515         3.5416815333        -5.0143077737 
[GTO]
  1 0
s   6 1.0 
    13575.3496820000         0.5435951735
     2035.2333680000         1.0145521571
      463.2256235900         1.7315729053
      131.2001959800         2.6910372890
       42.8530158900         3.6044547339
       15.5841857700         3.7025557541
s   2 1.0 
        6.2067138500         1.8383540665
        2.5764896500         0.5447575690
s   1 1.0 
        0.5769633900         0.4718145012
s   1 1.0 
        0.2297283100         0.2364944648
s   1 1.0 
        0.0951644400         0.1221141848
p   4 1.0 
       34.6972322400         1.3596662229
        7.9582622800         1.4512589862
        2.3780826900         1.2709231150
        0.8143320800         0.8025721212
p   1 1.0 
        0.2888754700         0.3018758836
p   1 1.0 
        0.1005682400         0.0807265050
d   1 1.0 
        0.8000000000         1.9292013661

  2 0
s   6 1.0 
    13575.3496820000         0.5435951735
     2035.2333680000         1.0145521571
      463.2256235900         1.7315729053
      131.2001959800         2.6910372890
       42.8530158900         3.6044547339
       15.5841857700         3.7025557541
s   2 1.0 
        6.2067138500         1.8383540665
        2.5764896500         0.5447575690
s   1 1.0 
        0.5769633900         0.4718145012
s   1 1.0 
        0.2297283100         0.2364944648
s   1 1.0 
        0.0951644400         0.1221141848
p   4 1.0 
       34.6972322400         1.3596662229
        7.9582622800         1.4512589862
        2.3780826900         1.2709231150
        0.8143320800         0.8025721212
p   1 1.0 
        0.2888754700         0.3018758836
p   1 1.0 
        0.1005682400         0.0807265050
d   1 1.0 
        0.8000000000         1.9292013661

  3 0
s   6 1.0 
    13575.3496820000         0.5435951735
     2035.2333680000         1.0145521571
      463.2256235900         1.7315729053
      131.2001959800         2.6910372890
       42.8530158900         3.6044547339
       15.5841857700         3.7025557541
s   2 1.0 
        6.2067138500         1.8383540665
        2.5764896500         0.5447575690
s   1 1.0 
        0.5769633900         0.4718145012
s   1 1.0 
        0.2297283100         0.2364944648
s   1 1.0 
        0.0951644400         0.1221141848
p   4 1.0 
       34.6972322400         1.3596662229
        7.9582622800         1.4512589862
        2.3780826900         1.2709231150
        0.8143320800         0.8025721212
p   1 1.0 
        0.2888754700         0.3018758836
p   1 1.0 
        0.1005682400         0.0807265050
d   1 1.0 
        0.8000000000         1.9292013661

  4 0
s   6 1.0 
    13575.3496820000         0.5435951735
     2035.2333680000         1.0145521571
      463.2256235900         1.7315729053
      131.2001959800         2.6910372890
       42.8530158900         3.6044547339
       15.5841857700         3.7025557541
s   2 1.0 
        6.2067138500         1.8383540665
        2.5764896500         0.5447575690
s   1 1.0 
        0.5769633900         0.4718145012
s   1 1.0 
        0.2297283100         0.2364944648
s   1 1.0 
        0.0951644400         0.1221141848
p   4 1.0 
       34.6972322400         1.3596662229
        7.9582622800         1.4512589862
        2.3780826900         1.2709231150
        0.8143320800         0.8025721212
p   1 1.0 
        0.2888754700         0.3018758836
p   1 1.0 
        0.1005682400         0.0807265050
d   1 1.0 
        0.8000000000         1.9292013661

  5 0
s   6 1.0 
    13575.3496820000         0.5435951735
     2035.2333680000         1.0145521571
      463.2256235900         1.7315729053
      131.2001959800         2.6910372890
       42.8530158900         3.6044547339
       15.5841857700         3.7025557541
s   2 1.0 
        6.2067138500         1.8383540665
        2.5764896500         0.5447575690
s   1 1.0 
        0.5769633900         0.4718145012
s   1 1.0 
        0.2297283100         0.2364944648
s   1 1.0 
        0.0951644400         0.1221141848
p   4 1.0 
       34.6972322400         1.3596662229
        7.9582622800         1.4512589862
        2.3780826900         1.2709231150
        0.8143320800         0.8025721212
p   1 1.0 
        0.2888754700         0.3018758836
p   1 1.0 
        0.1005682400         0.0807265050
d   1 1.0 
        0.8000000000         1.9292013661

  6 0
s   6 1.0 
    13575.3496820000         0.5435951735
     2035.2333680000         1.0145521571
      463.2256235900         1.7315729053
      131.2001959800         2.6910372890
       42.8530158900         3.6044547339
       15.5841857700         3.7025557541
s   2 1.0 
        6.2067138500         1.8383540665
        2.5764896500         0.5447575690
s   1 1.0 
        0.5769633900         0.4718145012
s   1 1.0 
        0.2297283100         0.2364944648
s   1 1.0 
        0.0951644400         0.1221141848
p   4 1.0 
       34.6972322400         1.3596662229
        7.9582622800         1.4512589862
        2.3780826900         1.2709231150
        0.8143320800         0.8025721212
p   1 1.0 
        0.2888754700         0.3018758836
p   1 1.0 
        0.1005682400         0.0807265050
d   1 1.0 
        0.8000000000         1.9292013661

  7 0
s   6 1.0 
    13575.3496820000         0.5435951735
     2035.2333680000         1.0145521571
      463.2256235900         1.7315729053
      131.2001959800         2.6910372890
       42.8530158900         3.6044547339
       15.5841857700         3.7025557541
s   2 1.0 
        6.2067138500         1.8383540665
        2.5764896500         0.5447575690
s   1 1.0 
        0.5769633900         0.4718145012
s   1 1.0 
        0.2297283100         0.2364944648
s   1 1.0 
        0.0951644400         0.1221141848
p   4 1.0 
       34.6972322400         1.3596662229
        7.9582622800         1.4512589862
        2.3780826900         1.2709231150
        0.8143320800         0.8025721212
p   1 1.0 
        0.2888754700         0.3018758836
p   1 1.0 
        0.1005682400         0.0807265050
d   1 1.0 
        0.8000000000         1.9292013661

  8 0
s   6 1.0 
    13575.3496820000         0.5435951735
     2035.2333680000         1.0145521571
      463.2256235900         1.7315729053
      131.2001959800         2.6910372890
       42.8530158900         3.6044547339
       15.5841857700         3.7025557541
s   2 1.0 
        6.2067138500         1.8383540665
        2.5764896500         0.5447575690
s   1 1.0 
        0.5769633900         0.4718145012
s   1 1.0 
        0.2297283100         0.2364944648
s   1 1.0 
        0.0951644400         0.1221141848
p   4 1.0 
       34.6972322400         1.3596662229
        7.9582622800         1.4512589862
        2.3780826900         1.2709231150
        0.8143320800         0.8025721212
p   1 1.0 
        0.2888754700         0.3018758836
p   1 1.0 
        0.1005682400         0.0807265050
d   1 1.0 
        0.8000000000         1.9292013661

  9 0
s   3 1.0 
       34.0613410000         0.2556300129
        5.1235746000         0.4613599287
        1.1646626000         0.6811215012
s   1 1.0 
        0.3272304100         0.3083545312
s   1 1.0 
        0.1030724100         0.1296483265
p   1 1.0 
        0.8000000000         1.0784563492

 10 0
s   3 1.0 
       34.0613410000         0.2556300129
        5.1235746000         0.4613599287
        1.1646626000         0.6811215012
s   1 1.0 
        0.3272304100         0.3083545312
s   1 1.0 
        0.1030724100         0.1296483265
p   1 1.0 
        0.8000000000         1.0784563492

 11 0
s   3 1.0 
       34.0613410000         0.2556300129
        5.1235746000         0.4613599287
        1.1646626000         0.6811215012
s   1 1.0 
        0.3272304100         0.3083545312
s   1 1.0 
        0.1030724100         0.1296483265
p   1 1.0 
        0.8000000000         1.0784563492

 12 0
s   3 1.0 
       34.0613410000         0.2556300129
        5.1235746000         0.4613599287
        1.1646626000         0.6811215012
s   1 1.0 
        0.3272304100         0.3083545312
s   1 1.0 
        0.1030724100         0.1296483265
p   1 1.0 
        0.8000000000         1.0784563492

 13 0
s   3 1.0 
       34.0613410000         0.2556300129
        5.1235746000         0.4613599287
        1.1646626000         0.6811215012
s   1 1.0 
        0.3272304100         0.3083545312
s   1 1.0 
        0.1030724100         0.1296483265
p   1 1.0 
        0.8000000000         1.0784563492

 14 0
s   3 1.0 
       34.0613410000         0.2556300129
        5.1235746000         0.4613599287
        1.1646626000         0.6811215012
s   1 1.0 
        0.3272304100         0.3083545312
s   1 1.0 
        0.1030724100         0.1296483265
p   1 1.0 
        0.8000000000         1.0784563492

 15 0
s   3 1.0 
       34.0613410000         0.2556300129
        5.1235746000         0.4613599287
        1.1646626000         0.6811215012
s   1 1.0 
        0.3272304100         0.3083545312
s   1 1.0 
        0.1030724100         0.1296483265
p   1 1.0 
        0.8000000000         1.0784563492

 16 0
s   3 1.0 
       34.0613410000         0.2556300129
        5.1235746000         0.4613599287
        1.1646626000         0.6811215012
s   1 1.0 
        0.3272304100         0.3083545312
s   1 1.0 
        0.1030724100         0.1296483265
p   1 1.0 
        0.8000000000         1.0784563492

 17 0
s   3 1.0 
       34.0613410000         0.2556300129
        5.1235746000         0.4613599287
        1.1646626000         0.6811215012
s   1 1.0 
        0.3272304100         0.3083545312
s   1 1.0 
        0.1030724100         0.1296483265
p   1 1.0 
        0.8000000000         1.0784563492

 18 0
s   3 1.0 
       34.0613410000         0.2556300129
        5.1235746000         0.4613599287
        1.1646626000         0.6811215012
s   1 1.0 
        0.3272304100         0.3083545312
s   1 1.0 
        0.1030724100         0.1296483265
p   1 1.0 
        0.8000000000         1.0784563492

[5D]
[7F]
[9G]
[MO]
 Sym=     1a
 Ene= -1.01771646111640E+01
 Spin= Alpha
 Occup= 2.000000
  1       0.003338776172
  2       0.004445284263
  3      -0.000409447777
  4       0.003421335682
  5       0.003612789337
  6       0.000114818948
  7      -0.000002117708
  8      -0.000052193998
  9      -0.000901863536
 10       0.000016457582
 11       0.000386315219
 12       0.000268958890
 13      -0.000023157880
 14       0.000002390415
 15       0.000224756438
 16      -0.000050068240
 17      -0.000002362924
 18      -0.000355982396
 19       0.000001454912
 20       0.332573464761
 21       0.434035139100
 22       0.026695475015
 23      -0.019977941841
 24       0.006900444850
 25       0.000013877615
 26      -0.000001443134
 27      -0.000018333798
 28      -0.000393602320
 29       0.000002905478
 30      -0.000205514983
 31      -0.005363551950
 32      -0.000021633934
 33      -0.002366904942
 34      -0.000038314666
 35      -0.000400796964
 36      -0.000000469760
 37      -0.000014562449
 38      -0.000001244957
 39       0.007767694769
 40       0.010363267978
 41      -0.000452578487
 42       0.003862288593
 43      -0.011567846427
 44      -0.000031477653
 45       0.000000718284
 46       0.000143419842
 47       0.000480524497
 48      -0.000002123231
 49      -0.000047732446
 50       0.006343840083
 51       0.000025780310
 52       0.001294375463
 53      -0.000290651824
 54       0.000505856881
 55      -0.000000024327
 56       0.000054146437
 57       0.000001563029
 58      -0.000204638316
 59      -0.000157685170
 60      -0.000587044390
 61       0.000967131340
 62       0.008738133699
 63      -0.000112548767
 64      -0.000000093676
 65       0.000140325855
 66       0.000133521916
 67       0.000000846219
 68      -0.000279047024
 69       0.002485961860
 70      -0.000001928764
 71       0.001562496288
 72       0.000025036130
 73       0.000081889342
 74       0.000000091635
 75      -0.000026139949
 76       0.000000105848
 77      -0.000209818984
 78      -0.000164306248
 79      -0.000589841161
 80       0.000985399580
 81       0.008502980169
 82      -0.000175788450
 83      -0.000000062564
 84       0.000035707484
 85       0.000309131675
 86      -0.000000131777
 87       0.000004081403
 88      -0.000355029425
 89      -0.000000491337
 90      -0.002950543224
 91       0.000034638868
 92       0.000074320461
 93       0.000000169921
 94      -0.000031934340
 95       0.000000006904
 96       0.007637681365
 97       0.010192181330
 98      -0.000457817682
 99       0.003808067872
100      -0.011002781493
101      -0.000142843259
102      -0.000000362574
103      -0.000037980837
104       0.000256083394
105      -0.000000029992
106      -0.000403373673
107       0.001909474718
108      -0.000015162149
109      -0.006242372038
110       0.000442458025
111       0.000066841317
112       0.000000914846
113      -0.000366300185
114      -0.000000934085
115       0.327112713045
116       0.426913978953
117       0.026234470351
118      -0.019528605067
119       0.006076097305
120       0.000022446346
121      -0.000000192854
122      -0.000003118690
123       0.000008221410
124       0.000001699873
125       0.000436013073
126      -0.000158477801
127       0.000017776869
128       0.005991610793
129      -0.000288785876
130      -0.000263777117
131      -0.000001532702
132       0.000124216270
133       0.000000000963
134       0.003291892859
135       0.004383064326
136      -0.000402786002
137       0.003349299642
138       0.003941073828
139       0.000099899171
140      -0.000000199179
141      -0.000079942817
142      -0.000752317096
143      -0.000002692664
144       0.000608428948
145       0.000046290427
146      -0.000000039116
147      -0.000166651825
148      -0.000320432859
149       0.000269911758
150      -0.000001129297
151      -0.000039317872
152      -0.000000420857
153      -0.000064451447
154      -0.000680967058
155      -0.000803212480
156       0.000085483115
157       0.000006149450
158       0.000181596723
159      -0.000000546682
160      -0.000700594497
161      -0.000994180160
162       0.000164344583
163       0.000141971033
164      -0.000064428854
165      -0.000002569741
166      -0.000676525350
167      -0.001043494580
168       0.000160496116
169      -0.000143134074
170      -0.000055098242
171      -0.000084296382
172      -0.000822427690
173      -0.000313565929
174      -0.000013338218
175       0.000000559493
176       0.000253996092
177       0.000033732889
178      -0.000099137744
179      -0.001036730253
180      -0.000000893949
181       0.000000215582
182      -0.000088208725
183       0.000034013270
184      -0.000102407632
185      -0.001052504948
186       0.000077707773
187      -0.000000034211
188       0.000041029641
189      -0.000082852354
190      -0.000816735695
191      -0.000341444299
192      -0.000229079149
193      -0.000000301664
194      -0.000101623592
195      -0.000062971728
196      -0.000680866116
197      -0.000840118810
198      -0.000123651387
199      -0.000001002369
200      -0.000156475052
201       0.000001991156
202      -0.000693613644
203      -0.001023356225
204       0.000127141889
205      -0.000141947069
206      -0.000117283241
207       0.000000710064
208      -0.000687683479
209      -0.001017896544
210       0.000125542931
211       0.000139996295
212      -0.000116451265
 Sym=     1a
 Ene= -1.01766715838694E+01
 Spin= Alpha
 Occup= 2.000000
  1      -0.003662972853
  2      -0.004835585553
  3       0.000407735929
  4      -0.004889531553
  5       0.018172472529
  6       0.000125054722
  7       0.000002341070
  8       0.000025937381
  9       0.001111042941
 10      -0.000011977429
 11      -0.000031145335
 12      -0.005475865300
 13       0.000069215358
 14       0.001832820191
 15      -0.000095210349
 16      -0.000077561128
 17      -0.000001878185
 18       0.000154117017
 19      -0.000000908767
 20      -0.327186872318
 21      -0.426648614872
 22      -0.027814745356
 23       0.027572847256
 24      -0.065714568816
 25      -0.000099366012
 26       0.000000322908
 27      -0.000041157864
 28       0.000662434447
 29       0.000001003820
 30       0.000233022300
 31       0.004808043716
 32      -0.000030429515
 33      -0.009895762827
 34      -0.000479023677
 35      -0.000426579974
 36      -0.000002224988
 37      -0.000067219037
 38      -0.000001530089
 39      -0.008402181458
 40      -0.011063074071
 41      -0.000199939250
 42      -0.004016688995
 43       0.045962267592
 44       0.000022840315
 45       0.000000589569
 46       0.000071253998
 47      -0.000498889382
 48      -0.000002057776
 49       0.000234212876
 50       0.000434594980
 51      -0.000013147621
 52      -0.012480699123
 53       0.000189838525
 54      -0.000407167388
 55      -0.000000278715
 56       0.000030809152
 57      -0.000000717212
 58      -0.000303452587
 59      -0.000386162897
 60      -0.000209562034
 61       0.001365248568
 62      -0.026466418162
 63       0.000035683639
 64      -0.000000040259
 65      -0.000008220918
 66       0.000145509687
 67       0.000000921879
 68       0.000142965713
 69      -0.004793322146
 70       0.000006640521
 71       0.009711039767
 72      -0.000058973698
 73      -0.000075390487
 74      -0.000000359634
 75       0.000026836791
 76      -0.000000135669
 77       0.000299959689
 78       0.000383454657
 79       0.000199659087
 80      -0.001349573587
 81       0.026613764815
 82      -0.000026598307
 83       0.000000066277
 84       0.000028615184
 85       0.000066348013
 86       0.000000196562
 87       0.000194691557
 88       0.010825341332
 89       0.000017963400
 90       0.000117373366
 91       0.000024145130
 92       0.000097649725
 93       0.000000224109
 94      -0.000006869965
 95       0.000000203140
 96       0.008538051342
 97       0.011244311464
 98       0.000191322262
 99       0.004084973761
100      -0.046170725451
101       0.000050532168
102       0.000000259822
103       0.000052248270
104       0.000441726117
105      -0.000000580343
106      -0.000344413475
107      -0.011276030943
108      -0.000026450958
109      -0.005409231730
110       0.000308384265
111       0.000117667642
112       0.000000664488
113      -0.000319945762
114      -0.000000631646
115       0.332645663379
116       0.433772511884
117       0.028256182431
118      -0.027911676705
119       0.065871246370
120       0.000009286805
121      -0.000000290732
122      -0.000108469427
123      -0.000095358540
124       0.000002237949
125       0.000708548350
126      -0.011008700642
127      -0.000010487691
128      -0.000164346096
129       0.000251188266
130       0.000554627324
131       0.000002314620
132       0.000197618947
133       0.000001703420
134       0.003732318250
135       0.004927763505
136      -0.000416422070
137       0.004954540707
138      -0.018157686863
139      -0.000031917636
140       0.000000291628
141       0.000121611301
142      -0.000546215356
143       0.000001714424
144       0.000989185010
145       0.004140031405
146      -0.000008806551
147      -0.004050510791
148      -0.000074372910
149       0.000178359644
150      -0.000000212224
151      -0.000060168877
152       0.000000476493
153       0.000110404891
154       0.000176056183
155      -0.002228065558
156      -0.000137004730
157      -0.000001127322
158      -0.000116920738
159       0.000159395879
160      -0.000165245554
161      -0.000232091159
162      -0.000062521396
163      -0.000070323962
164       0.000060451170
165       0.000160197313
166      -0.000163930820
167      -0.000167233562
168      -0.000067381856
169       0.000069841939
170       0.000060456059
171       0.000082573922
172       0.000607002109
173      -0.000464325124
174      -0.000069632994
175      -0.000000808550
176      -0.000245581465
177       0.000038354063
178      -0.000378256237
179      -0.001934530649
180      -0.000000216147
181       0.000000344688
182       0.000044109797
183      -0.000037824237
184       0.000376828117
185       0.001917691402
186       0.000040653964
187      -0.000000056847
188       0.000020783095
189      -0.000084197502
190      -0.000620864974
191       0.000462182335
192      -0.000190715225
193      -0.000000551020
194      -0.000176059709
195      -0.000112047596
196      -0.000183928941
197       0.002222948770
198      -0.000043043034
199      -0.000000274672
200      -0.000176964971
201      -0.000159632684
202       0.000152493374
203       0.000178326610
204       0.000085968508
205      -0.000072819621
206      -0.000033033257
207      -0.000159687139
208       0.000151470685
209       0.000190718827
210       0.000085977158
211       0.000072881050
212      -0.000033776340
 Sym=     1a
 Ene= -1.01664031717531E+01
 Spin= Alpha
 Occup= 2.000000
  1       0.001339088560
  2       0.001728414369
  3       0.000205695114
  4       0.000216689533
  5      -0.003207027762
  6      -0.000064813468
  7       0.000000461575
  8       0.000002845247
  9       0.000130101745
 10       0.000002273075
 11       0.000066880800
 12       0.001382092311
 13       0.000028332063
 14       0.000802782330
 15      -0.000006185485
 16      -0.000015151882
 17      -0.000001576679
 18      -0.000052453668
 19       0.000000322068
 20       0.003198174095
 21       0.003985398775
 22       0.000965977138
 23      -0.001328785947
 24      -0.004683911721
 25      -0.000213811573
 26      -0.000000187156
 27      -0.000043157410
 28       0.000106690635
 29       0.000000136408
 30       0.000521278655
 31       0.001866177507
 32      -0.000018249367
 33      -0.004329844499
 34       0.000148782588
 35      -0.000249860007
 36       0.000000379360
 37       0.000056295014
 38      -0.000001075884
 39      -0.142635223455
 40      -0.186307585347
 41      -0.010451654862
 42       0.004764750195
 43       0.004409145641
 44      -0.000063075177
 45      -0.000000374753
 46      -0.000112791655
 47      -0.000460943209
 48       0.000000344987
 49       0.000198023263
 50       0.003507099161
 51      -0.000003286839
 52      -0.005146891278
 53      -0.000520284986
 54      -0.000051558982
 55      -0.000001862080
 56       0.000218280639
 57       0.000000452045
 58      -0.297793433968
 59      -0.388742848720
 60      -0.023089040110
 61       0.013717165540
 62      -0.002236292909
 63      -0.000015925512
 64       0.000000052686
 65       0.000032591597
 66       0.000339368143
 67      -0.000001785832
 68      -0.000940577841
 69       0.000500231520
 70       0.000008082852
 71       0.003555175580
 72      -0.000201867115
 73       0.000585648205
 74      -0.000000226456
 75      -0.000096691355
 76       0.000000895136
 77      -0.297012610768
 78      -0.387724738164
 79      -0.023023311755
 80       0.013648888341
 81      -0.001936604118
 82      -0.000035745766
 83      -0.000000136443
 84      -0.000000511070
 85       0.000986675930
 86       0.000001549339
 87       0.000125634995
 88      -0.002824584450
 89      -0.000007650659
 90      -0.002072547058
 91       0.000384260172
 92       0.000239254812
 93       0.000000773979
 94      -0.000433757658
 95      -0.000000614188
 96      -0.142874560774
 97      -0.186619449742
 98      -0.010473141407
 99       0.004793842347
100       0.004143326623
101       0.000071888771
102       0.000000350109
103       0.000107841391
104      -0.000388560157
105      -0.000000256510
106       0.000320517882
107       0.006140341313
108       0.000006680841
109      -0.000845877661
110       0.000210560819
111      -0.000483364338
112      -0.000000260393
113      -0.000204208013
114      -0.000001514123
115       0.003206316678
116       0.003995797370
117       0.000968210152
118      -0.001337305502
119      -0.004521383390
120      -0.000059127415
121       0.000000292985
122       0.000209783454
123      -0.000414542886
124      -0.000000778423
125      -0.000333238092
126       0.004640916379
127       0.000009187233
128       0.000383158895
129      -0.000165282642
130      -0.000063876770
131       0.000000031455
132       0.000237768440
133       0.000000373747
134       0.001418940194
135       0.001832441937
136       0.000212470230
137       0.000213666683
138      -0.003157831418
139      -0.000032285079
140       0.000000200721
141       0.000056284870
142       0.000000448503
143      -0.000000692745
144      -0.000145194665
145      -0.000087299809
146      -0.000004915849
147      -0.001587014362
148      -0.000045326779
149       0.000008023446
150      -0.000000237116
151      -0.000029808855
152      -0.000000117654
153      -0.000011896798
154       0.000178939612
155      -0.000612529222
156      -0.000007116878
157       0.000000750085
158       0.000012389880
159      -0.000025240567
160       0.000120330928
161       0.000325982948
162      -0.000001251155
163       0.000009084999
164       0.000000303115
165      -0.000027670494
166       0.000135213123
167       0.000339529464
168      -0.000005220950
169      -0.000009951926
170       0.000004040678
171       0.000182976397
172      -0.000018565006
173       0.001284521570
174      -0.000307165856
175      -0.000001472460
176      -0.000315611341
177       0.000370140771
178      -0.000213319260
179      -0.000438195412
180       0.000415221855
181      -0.000001295649
182      -0.000879463198
183       0.000369102058
184      -0.000207148316
185      -0.000421386392
186       0.000970421940
187       0.000001317109
188       0.000032391533
189       0.000183089649
190      -0.000023116268
191       0.001277573932
192       0.000140401680
193       0.000000949797
194       0.000417163213
195      -0.000011400239
196       0.000177881133
197      -0.000617827043
198      -0.000014022010
199       0.000000061226
200       0.000000179181
201      -0.000026461185
202       0.000126728138
203       0.000331592735
204      -0.000003064738
205      -0.000009677001
206       0.000002528207
207      -0.000026479135
208       0.000128479414
209       0.000324095459
210      -0.000003790880
211       0.000010173906
212       0.000001689256
 Sym=     1a
 Ene= -1.01660723964926E+01
 Spin= Alpha
 Occup= 2.000000
  1       0.004114249860
  2       0.005339862682
  3       0.000353823042
  4      -0.000490724523
  5       0.000821388419
  6      -0.000011642973
  7       0.000001133564
  8      -0.000028577353
  9      -0.000179566822
 10      -0.000021002591
 11       0.000121621659
 12       0.000639129007
 13      -0.000011113698
 14       0.001737239423
 15      -0.000096216135
 16      -0.000047144963
 17      -0.000002356031
 18      -0.000021099315
 19      -0.000002284586
 20       0.006890354588
 21       0.008903696595
 22       0.001099505774
 23      -0.004696906602
 24       0.027591945711
 25       0.000070278553
 26      -0.000001558931
 27      -0.000146217975
 28       0.000437533471
 29       0.000011655123
 30       0.001882334919
 31      -0.002784213856
 32      -0.000074064744
 33      -0.031334153055
 34       0.000155473868
 35      -0.000488194568
 36       0.000000125447
 37      -0.000033711872
 38       0.000001007135
 39      -0.260416199154
 40      -0.339709144456
 41      -0.021322825105
 42       0.015014193036
 43       0.011926950264
 44       0.000084942002
 45       0.000001504992
 46       0.000201299441
 47      -0.000225626361
 48      -0.000007154526
 49      -0.001147287520
 50       0.011098263430
 51       0.000020542883
 52      -0.003460849866
 53      -0.000391419855
 54      -0.000196110831
 55      -0.000001795481
 56      -0.000089817536
 57      -0.000000669464
 58      -0.201536841372
 59      -0.262896285671
 60      -0.016599032963
 61       0.013073400765
 62      -0.013164401291
 63      -0.000097785124
 64      -0.000000081594
 65       0.000163656289
 66       0.000611085966
 67       0.000000475596
 68      -0.000904053252
 69      -0.000296133596
 70       0.000009698632
 71       0.008549006180
 72      -0.000651593014
 73      -0.000166769377
 74      -0.000002194991
 75       0.000154732578
 76       0.000000260031
 77       0.200906680957
 78       0.262075237345
 79       0.016543963401
 80      -0.013017982489
 81       0.013078838575
 82       0.000188837845
 83       0.000000366262
 84      -0.000012927272
 85      -0.001077152534
 86      -0.000001589727
 87       0.000128852808
 88       0.007706052398
 89       0.000020425397
 90       0.003647685584
 91      -0.000112172883
 92       0.000621031629
 93       0.000001108965
 94       0.000284523196
 95       0.000001875823
 96       0.262382201733