[Molden Format]
[Title]
 Molden file created by orca_2mkl for BaseName=./MES

[Atoms] AU
C    1   6          1.9101497753         1.8928138879         0.0148628511 
C    2   6         -0.9423150297         1.8871473445        -0.0049115086 
C    3   6         -2.3153583608         1.8899467049         2.2496582178 
C    4   6         -4.9494217669         1.8846778226         2.2584339416 
C    5   6         -6.4133108919         1.8880131407         4.7060590376 
C    6   6         -6.2151585771         1.8763654590        -0.0583570057 
C    7   6         -4.9046054537         1.8734425990        -2.3427894847 
C    8   6         -6.2928456564         1.8642483736        -4.8341781736 
C    9   6         -2.2655219616         1.8790276591        -2.2824786747 
H   10   1          2.6469324668         1.8987818826         1.9401197383 
H   11   1          2.6631861165         3.5550484917        -0.9544960334 
H   12   1          2.6697116223         0.2290472519        -0.9467381241 
H   13   1         -1.3069722496         1.8964150145         4.0355798507 
H   14   1         -5.1497449163         1.8934601055         6.3349132184 
H   15   1         -7.6288882142         0.2235242605         4.8548901271 
H   16   1         -7.6335873673         3.5497201347         4.8474664235 
H   17   1         -8.2668044562         1.8721356649        -0.0810918273 
H   18   1         -8.3353662195         1.8644740926        -4.5548832666 
H   19   1         -5.8095108241         0.1974422337        -5.9560384086 
H   20   1         -5.8105863197         3.5234159355        -5.9676957064 
H   21   1         -1.2220195375         1.8769151269        -4.0501204425 
[GTO]
  1 0
s   6 1.0 
    13575.3496820000         0.5435951735
     2035.2333680000         1.0145521571
      463.2256235900         1.7315729053
      131.2001959800         2.6910372890
       42.8530158900         3.6044547339
       15.5841857700         3.7025557541
s   2 1.0 
        6.2067138500         1.8383540665
        2.5764896500         0.5447575690
s   1 1.0 
        0.5769633900         0.4718145012
s   1 1.0 
        0.2297283100         0.2364944648
s   1 1.0 
        0.0951644400         0.1221141848
p   4 1.0 
       34.6972322400         1.3596662229
        7.9582622800         1.4512589862
        2.3780826900         1.2709231150
        0.8143320800         0.8025721212
p   1 1.0 
        0.2888754700         0.3018758836
p   1 1.0 
        0.1005682400         0.0807265050
d   1 1.0 
        0.8000000000         1.9292013661

  2 0
s   6 1.0 
    13575.3496820000         0.5435951735
     2035.2333680000         1.0145521571
      463.2256235900         1.7315729053
      131.2001959800         2.6910372890
       42.8530158900         3.6044547339
       15.5841857700         3.7025557541
s   2 1.0 
        6.2067138500         1.8383540665
        2.5764896500         0.5447575690
s   1 1.0 
        0.5769633900         0.4718145012
s   1 1.0 
        0.2297283100         0.2364944648
s   1 1.0 
        0.0951644400         0.1221141848
p   4 1.0 
       34.6972322400         1.3596662229
        7.9582622800         1.4512589862
        2.3780826900         1.2709231150
        0.8143320800         0.8025721212
p   1 1.0 
        0.2888754700         0.3018758836
p   1 1.0 
        0.1005682400         0.0807265050
d   1 1.0 
        0.8000000000         1.9292013661

  3 0
s   6 1.0 
    13575.3496820000         0.5435951735
     2035.2333680000         1.0145521571
      463.2256235900         1.7315729053
      131.2001959800         2.6910372890
       42.8530158900         3.6044547339
       15.5841857700         3.7025557541
s   2 1.0 
        6.2067138500         1.8383540665
        2.5764896500         0.5447575690
s   1 1.0 
        0.5769633900         0.4718145012
s   1 1.0 
        0.2297283100         0.2364944648
s   1 1.0 
        0.0951644400         0.1221141848
p   4 1.0 
       34.6972322400         1.3596662229
        7.9582622800         1.4512589862
        2.3780826900         1.2709231150
        0.8143320800         0.8025721212
p   1 1.0 
        0.2888754700         0.3018758836
p   1 1.0 
        0.1005682400         0.0807265050
d   1 1.0 
        0.8000000000         1.9292013661

  4 0
s   6 1.0 
    13575.3496820000         0.5435951735
     2035.2333680000         1.0145521571
      463.2256235900         1.7315729053
      131.2001959800         2.6910372890
       42.8530158900         3.6044547339
       15.5841857700         3.7025557541
s   2 1.0 
        6.2067138500         1.8383540665
        2.5764896500         0.5447575690
s   1 1.0 
        0.5769633900         0.4718145012
s   1 1.0 
        0.2297283100         0.2364944648
s   1 1.0 
        0.0951644400         0.1221141848
p   4 1.0 
       34.6972322400         1.3596662229
        7.9582622800         1.4512589862
        2.3780826900         1.2709231150
        0.8143320800         0.8025721212
p   1 1.0 
        0.2888754700         0.3018758836
p   1 1.0 
        0.1005682400         0.0807265050
d   1 1.0 
        0.8000000000         1.9292013661

  5 0
s   6 1.0 
    13575.3496820000         0.5435951735
     2035.2333680000         1.0145521571
      463.2256235900         1.7315729053
      131.2001959800         2.6910372890
       42.8530158900         3.6044547339
       15.5841857700         3.7025557541
s   2 1.0 
        6.2067138500         1.8383540665
        2.5764896500         0.5447575690
s   1 1.0 
        0.5769633900         0.4718145012
s   1 1.0 
        0.2297283100         0.2364944648
s   1 1.0 
        0.0951644400         0.1221141848
p   4 1.0 
       34.6972322400         1.3596662229
        7.9582622800         1.4512589862
        2.3780826900         1.2709231150
        0.8143320800         0.8025721212
p   1 1.0 
        0.2888754700         0.3018758836
p   1 1.0 
        0.1005682400         0.0807265050
d   1 1.0 
        0.8000000000         1.9292013661

  6 0
s   6 1.0 
    13575.3496820000         0.5435951735
     2035.2333680000         1.0145521571
      463.2256235900         1.7315729053
      131.2001959800         2.6910372890
       42.8530158900         3.6044547339
       15.5841857700         3.7025557541
s   2 1.0 
        6.2067138500         1.8383540665
        2.5764896500         0.5447575690
s   1 1.0 
        0.5769633900         0.4718145012
s   1 1.0 
        0.2297283100         0.2364944648
s   1 1.0 
        0.0951644400         0.1221141848
p   4 1.0 
       34.6972322400         1.3596662229
        7.9582622800         1.4512589862
        2.3780826900         1.2709231150
        0.8143320800         0.8025721212
p   1 1.0 
        0.2888754700         0.3018758836
p   1 1.0 
        0.1005682400         0.0807265050
d   1 1.0 
        0.8000000000         1.9292013661

  7 0
s   6 1.0 
    13575.3496820000         0.5435951735
     2035.2333680000         1.0145521571
      463.2256235900         1.7315729053
      131.2001959800         2.6910372890
       42.8530158900         3.6044547339
       15.5841857700         3.7025557541
s   2 1.0 
        6.2067138500         1.8383540665
        2.5764896500         0.5447575690
s   1 1.0 
        0.5769633900         0.4718145012
s   1 1.0 
        0.2297283100         0.2364944648
s   1 1.0 
        0.0951644400         0.1221141848
p   4 1.0 
       34.6972322400         1.3596662229
        7.9582622800         1.4512589862
        2.3780826900         1.2709231150
        0.8143320800         0.8025721212
p   1 1.0 
        0.2888754700         0.3018758836
p   1 1.0 
        0.1005682400         0.0807265050
d   1 1.0 
        0.8000000000         1.9292013661

  8 0
s   6 1.0 
    13575.3496820000         0.5435951735
     2035.2333680000         1.0145521571
      463.2256235900         1.7315729053
      131.2001959800         2.6910372890
       42.8530158900         3.6044547339
       15.5841857700         3.7025557541
s   2 1.0 
        6.2067138500         1.8383540665
        2.5764896500         0.5447575690
s   1 1.0 
        0.5769633900         0.4718145012
s   1 1.0 
        0.2297283100         0.2364944648
s   1 1.0 
        0.0951644400         0.1221141848
p   4 1.0 
       34.6972322400         1.3596662229
        7.9582622800         1.4512589862
        2.3780826900         1.2709231150
        0.8143320800         0.8025721212
p   1 1.0 
        0.2888754700         0.3018758836
p   1 1.0 
        0.1005682400         0.0807265050
d   1 1.0 
        0.8000000000         1.9292013661

  9 0
s   6 1.0 
    13575.3496820000         0.5435951735
     2035.2333680000         1.0145521571
      463.2256235900         1.7315729053
      131.2001959800         2.6910372890
       42.8530158900         3.6044547339
       15.5841857700         3.7025557541
s   2 1.0 
        6.2067138500         1.8383540665
        2.5764896500         0.5447575690
s   1 1.0 
        0.5769633900         0.4718145012
s   1 1.0 
        0.2297283100         0.2364944648
s   1 1.0 
        0.0951644400         0.1221141848
p   4 1.0 
       34.6972322400         1.3596662229
        7.9582622800         1.4512589862
        2.3780826900         1.2709231150
        0.8143320800         0.8025721212
p   1 1.0 
        0.2888754700         0.3018758836
p   1 1.0 
        0.1005682400         0.0807265050
d   1 1.0 
        0.8000000000         1.9292013661

 10 0
s   3 1.0 
       34.0613410000         0.2556300129
        5.1235746000         0.4613599287
        1.1646626000         0.6811215012
s   1 1.0 
        0.3272304100         0.3083545312
s   1 1.0 
        0.1030724100         0.1296483265
p   1 1.0 
        0.8000000000         1.0784563492

 11 0
s   3 1.0 
       34.0613410000         0.2556300129
        5.1235746000         0.4613599287
        1.1646626000         0.6811215012
s   1 1.0 
        0.3272304100         0.3083545312
s   1 1.0 
        0.1030724100         0.1296483265
p   1 1.0 
        0.8000000000         1.0784563492

 12 0
s   3 1.0 
       34.0613410000         0.2556300129
        5.1235746000         0.4613599287
        1.1646626000         0.6811215012
s   1 1.0 
        0.3272304100         0.3083545312
s   1 1.0 
        0.1030724100         0.1296483265
p   1 1.0 
        0.8000000000         1.0784563492

 13 0
s   3 1.0 
       34.0613410000         0.2556300129
        5.1235746000         0.4613599287
        1.1646626000         0.6811215012
s   1 1.0 
        0.3272304100         0.3083545312
s   1 1.0 
        0.1030724100         0.1296483265
p   1 1.0 
        0.8000000000         1.0784563492

 14 0
s   3 1.0 
       34.0613410000         0.2556300129
        5.1235746000         0.4613599287
        1.1646626000         0.6811215012
s   1 1.0 
        0.3272304100         0.3083545312
s   1 1.0 
        0.1030724100         0.1296483265
p   1 1.0 
        0.8000000000         1.0784563492

 15 0
s   3 1.0 
       34.0613410000         0.2556300129
        5.1235746000         0.4613599287
        1.1646626000         0.6811215012
s   1 1.0 
        0.3272304100         0.3083545312
s   1 1.0 
        0.1030724100         0.1296483265
p   1 1.0 
        0.8000000000         1.0784563492

 16 0
s   3 1.0 
       34.0613410000         0.2556300129
        5.1235746000         0.4613599287
        1.1646626000         0.6811215012
s   1 1.0 
        0.3272304100         0.3083545312
s   1 1.0 
        0.1030724100         0.1296483265
p   1 1.0 
        0.8000000000         1.0784563492

 17 0
s   3 1.0 
       34.0613410000         0.2556300129
        5.1235746000         0.4613599287
        1.1646626000         0.6811215012
s   1 1.0 
        0.3272304100         0.3083545312
s   1 1.0 
        0.1030724100         0.1296483265
p   1 1.0 
        0.8000000000         1.0784563492

 18 0
s   3 1.0 
       34.0613410000         0.2556300129
        5.1235746000         0.4613599287
        1.1646626000         0.6811215012
s   1 1.0 
        0.3272304100         0.3083545312
s   1 1.0 
        0.1030724100         0.1296483265
p   1 1.0 
        0.8000000000         1.0784563492

 19 0
s   3 1.0 
       34.0613410000         0.2556300129
        5.1235746000         0.4613599287
        1.1646626000         0.6811215012
s   1 1.0 
        0.3272304100         0.3083545312
s   1 1.0 
        0.1030724100         0.1296483265
p   1 1.0 
        0.8000000000         1.0784563492

 20 0
s   3 1.0 
       34.0613410000         0.2556300129
        5.1235746000         0.4613599287
        1.1646626000         0.6811215012
s   1 1.0 
        0.3272304100         0.3083545312
s   1 1.0 
        0.1030724100         0.1296483265
p   1 1.0 
        0.8000000000         1.0784563492

 21 0
s   3 1.0 
       34.0613410000         0.2556300129
        5.1235746000         0.4613599287
        1.1646626000         0.6811215012
s   1 1.0 
        0.3272304100         0.3083545312
s   1 1.0 
        0.1030724100         0.1296483265
p   1 1.0 
        0.8000000000         1.0784563492

[5D]
[7F]
[9G]
[MO]
 Sym=     1a
 Ene= -1.01754903840756E+01
 Spin= Alpha
 Occup= 2.000000
  1      -0.000007595306
  2      -0.000015238548
  3       0.000003085759
  4      -0.000182644443
  5       0.002098742443
  6       0.000008884255
  7      -0.000000085539
  8      -0.000046104739
  9      -0.000020127349
 10       0.000000420184
 11       0.000192002036
 12      -0.000750405347
 13      -0.000000732719
 14       0.000296601553
 15      -0.000021767075
 16      -0.000006787262
 17      -0.000000045223
 18       0.000025578191
 19       0.000000096193
 20      -0.002391779793
 21      -0.003041868152
 22      -0.000601612626
 23       0.000584895353
 24       0.019074116705
 25       0.000166785081
 26       0.000000292012
 27      -0.000017591959
 28      -0.000301355853
 29       0.000000865956
 30       0.000600942726
 31      -0.005532972422
 32      -0.000028734135
 33      -0.007336600486
 34       0.000038543717
 35      -0.000130938954
 36      -0.000000123533
 37      -0.000002060263
 38      -0.000000331660
 39      -0.000329419146
 40      -0.000329498606
 41      -0.000521934241
 42       0.000591913701
 43      -0.000655324504
 44       0.000046338152
 45       0.000000260578
 46       0.000073003117
 47       0.000006598575
 48       0.000000231991
 49       0.000068153903
 50       0.001124313967
 51       0.000014544058
 52       0.004920057888
 53      -0.000014068608
 54       0.000013335987
 55      -0.000000136719
 56      -0.000039455628
 57      -0.000000130195
 58      -0.000970158884
 59      -0.001190577480
 60      -0.000435913600
 61       0.000252196472
 62       0.020994453096
 63      -0.000101578166
 64       0.000000081044
 65       0.000123465488
 66       0.000659078679
 67       0.000001678546
 68       0.000107161625
 69      -0.005270592212
 70      -0.000041986741
 71      -0.012284357826
 72      -0.000106937410
 73      -0.000027346188
 74      -0.000000348276
 75       0.000077338748
 76       0.000000253284
 77       0.000002227481
 78      -0.000000889055
 79      -0.000021875555
 80      -0.000098809271
 81       0.003968010411
 82      -0.000064452992
 83      -0.000000165670
 84      -0.000014674711
 85       0.000302929269
 86       0.000000927151
 87       0.000089384336
 88       0.000956486073
 89       0.000000641791
 90      -0.000816683913
 91       0.000011868345
 92      -0.000027668749
 93       0.000000028658
 94       0.000009285168
 95      -0.000000052913
 96       0.007611910515
 97       0.010162201853
 98      -0.000474417427
 99       0.005697610329
100      -0.046541623431
101      -0.000028456609
102       0.000000137164
103       0.000072739013
104      -0.000222113548
105      -0.000001784093
106      -0.000492829032
107      -0.011515857672
108      -0.000036330825
109      -0.005323208282
110      -0.000430803228
111       0.000602995454
112      -0.000000418116
113       0.000072810362
114       0.000001754003
115       0.466558258511
116       0.608636676912
117       0.038653316741
118      -0.034116612281
119       0.057826461421
120      -0.000034405611
121      -0.000000382017
122      -0.000077855657
123       0.000437506516
124       0.000002920605
125       0.000713444812
126       0.007810134357
127       0.000044571835
128       0.011511145971
129      -0.000026368421
130      -0.000226228466
131      -0.000000056841
132       0.000216824059
133       0.000000319652
134       0.004355714907
135       0.005802378937
136      -0.000782474180
137       0.006367671216
138      -0.005708685739
139       0.000021782029
140      -0.000000287304
141      -0.000054065003
142       0.000606448480
143       0.000006584301
144       0.001673523811
145      -0.000830829597
146      -0.000014005538
147      -0.003197865853
148      -0.000265910882
149      -0.000292296479
150      -0.000001993138
151      -0.000067233043
152      -0.000001080177
153       0.007284644820
154       0.009721360840
155      -0.000378643286
156       0.005246625067
157      -0.043181289716
158       0.000053521074
159       0.000000138601
160       0.000002789977
161      -0.000242912260
162      -0.000001628534
163      -0.000404418471
164       0.003345968631
165      -0.000015471712
166      -0.009496201503
167       0.000545188277
168      -0.000083406830
169       0.000000884709
170      -0.000500471072
171      -0.000002252352
172      -0.000020588018
173       0.000011866664
174       0.000022917627
175      -0.000040104008
176       0.000000001661
177       0.000031574339
178       0.000053055014
179      -0.000256790158
180      -0.000096205644
181       0.000046244125
182      -0.000014172681
183      -0.000000097126
184       0.000053052233
185      -0.000256787947
186      -0.000096037788
187       0.000046160549
188       0.000014369482
189      -0.000000173902
190      -0.000022901672
191      -0.000056599697
192      -0.001923390508
193      -0.000022257359
194      -0.000000188069
195      -0.000051417068
196      -0.000027245956
197      -0.000015527137
198      -0.000132598936
199       0.000064327197
200       0.000000028852
201      -0.000010041854
202       0.000066094572
203      -0.000316536511
204      -0.000216041952
205      -0.000026380544
206       0.000019008791
207       0.000043605148
208       0.000066078733
209      -0.000316738302
210      -0.000216996766
211      -0.000026375546
212      -0.000018815966
213       0.000043673558
214      -0.000111669175
215      -0.000999544718
216       0.000287421418
217      -0.000318902229
218      -0.000000245927
219       0.000165187357
220      -0.000124013564
221      -0.000556460041
222       0.000317774575
223      -0.000254734976
224      -0.000000149618
225      -0.000040799038
226      -0.000126162959
227      -0.000389532412
228      -0.000891197080
229      -0.000002086817
230      -0.000143435218
231      -0.000184625844
232      -0.000126102695
233      -0.000390079644
234      -0.000886042748
235      -0.000002038854
236       0.000142249646
237      -0.000185451395
238      -0.000114865174
239      -0.000867096801
240       0.000710684177
241       0.000282923595
242       0.000000139489
243      -0.000186912864
 Sym=     1a
 Ene= -1.01752097547886E+01
 Spin= Alpha
 Occup= 2.000000
  1      -0.004407298525
  2      -0.005871686071
  3       0.000797650261
  4      -0.006458554256
  5       0.005627602157
  6      -0.000037786531
  7       0.000000014398
  8       0.000039141519
  9       0.001777997508
 10       0.000002940306
 11      -0.000233703910
 12      -0.003149138394
 13      -0.000004020827
 14       0.000919501821
 15      -0.000207266350
 16      -0.000008460701
 17      -0.000000061483
 18       0.000339000729
 19       0.000001316695
 20      -0.466547596747
 21      -0.608627674192
 22      -0.038664488809
 23       0.034216189077
 24      -0.060927276412
 25      -0.000084335379
 26      -0.000000196198
 27      -0.000000732000
 28       0.000825632366
 29       0.000001969089
 30       0.000113442950
 31       0.015132613224
 32       0.000028566101
 33      -0.000507905552
 34      -0.000313406615
 35      -0.000006933558
 36      -0.000001374646
 37      -0.000018721660
 38      -0.000000078462
 39      -0.007697870940
 40      -0.010277418190
 41       0.000523267968
 42      -0.005927828676
 43       0.050006895706
 44       0.000040165814
 45      -0.000000044927
 46      -0.000054967597
 47      -0.000567130139
 48      -0.000001001242
 49       0.000080287284
 50      -0.009524468829
 51      -0.000043540407
 52      -0.009930955419
 53       0.000314732288
 54      -0.000668420389
 55      -0.000000046522
 56      -0.000019377719
 57      -0.000001719598
 58       0.001402668863
 59       0.001755859192
 60       0.000452785526
 61      -0.000170981511
 62      -0.023649239122
 63       0.000072329580
 64      -0.000000187589
 65      -0.000135040975
 66       0.000347132037
 67       0.000001728044
 68       0.000413973536
 69      -0.012774786194
 70      -0.000016903611
 71       0.003368332872
 72      -0.000091937196
 73      -0.000096163370
 74      -0.000000461520
 75       0.000038572970
 76      -0.000000097322
 77      -0.000025738021
 78      -0.000021070650
 79      -0.000065590756
 80       0.000377780182
 81      -0.005289182112
 82      -0.000020764402
 83      -0.000000165733
 84      -0.000041508814
 85       0.000221988582
 86       0.000001038110
 87       0.000258983451
 88       0.000389911938
 89       0.000004343937
 90       0.001785525164
 91      -0.000012731474
 92       0.000037362921
 93      -0.000000000253
 94       0.000002841321
 95       0.000000100750
 96       0.000244443472
 97       0.000223095908
 98       0.000479177772
 99      -0.000551189222
100       0.001426096122
101       0.000090759516
102       0.000000159120
103      -0.000001516876
104       0.000045815695
105      -0.000000000292
106      -0.000076696622
107       0.005267243112
108       0.000013167535
109       0.000974175906
110       0.000036240956
111      -0.000016540103
112       0.000000194632
113       0.000028923098
114       0.000000074012
115      -0.002257934835
116      -0.003023943873
117       0.000226124755
118      -0.000321936449
119      -0.019482523355
120       0.000061575281
121       0.000000505084
122       0.000160051384
123       0.000412328673
124      -0.000000602025
125      -0.000605603842
126      -0.011157196730
127      -0.000025343077
128      -0.000434689537
129      -0.000089813430
130       0.000103265465
131      -0.000000052979
132       0.000028731479
133       0.000000390100
134      -0.000039123332
135      -0.000045828488
136       0.000004532731
137       0.000094670102
138      -0.002156055895
139      -0.000043673260
140       0.000000007957
141       0.000033685162
142       0.000218537393
143       0.000000402380
144      -0.000152085765
145       0.000014004053
146      -0.000000084083
147      -0.000831115431
148      -0.000019156228
149      -0.000017103686
150      -0.000000191900
151      -0.000001817777
152      -0.000000009074
153      -0.007657386219
154      -0.010211750701
155       0.000354543086
156      -0.005252224153
157       0.045200536117
158       0.000034375712
159       0.000000190983
160       0.000051820518
161      -0.000459126728
162      -0.000000879722
163       0.000010595876
164      -0.008322586820
165       0.000000661721
166       0.007268435900
167       0.000354525885
168       0.000663531702
169       0.000002784421
170      -0.000010909683
171       0.000001543916
172       0.000123036617
173       0.000548299165
174      -0.000413564061
175      -0.000157425677
176      -0.000000772269
177      -0.000197487933
178       0.000132152918
179       0.000362918048
180       0.000891930726
181      -0.000160679537
182      -0.000145278597
183       0.000088621253
184       0.000132148728
185       0.000362942824
186       0.000891785314
187      -0.000161209623
188       0.000145050435
189       0.000087954182
190       0.000102708652
191       0.001102906279
192       0.000189133525
193      -0.000017670701
194      -0.000000931363
195      -0.000364329449
196      -0.000047293960
197       0.000086457590
198      -0.000168854466
199       0.000065925853
200       0.000000137752
201       0.000016978488
202      -0.000028824743
203       0.000212668667
204       0.000676089310
205       0.000012496935
206       0.000034882727
207      -0.000005942116
208      -0.000028923980
209       0.000213068455
210       0.000676917360
211       0.000012666370
212      -0.000034834806
213      -0.000005910934
214       0.000018132027
215       0.000048606967
216       0.002173316067
217      -0.000053909573
218      -0.000000124032
219      -0.000002981803
220       0.000020816594
221       0.000028596900
222       0.000052177423
223       0.000025236584
224      -0.000000258048
225      -0.000050646066
226      -0.000057172694
227       0.000280159622
228       0.000094494381
229       0.000023256459
230      -0.000016059509
231       0.000043933218
232      -0.000057186239
233       0.000279459872
234       0.000092170979
235       0.000023273634
236       0.000016627548
237       0.000043649433
238       0.000114973991
239       0.000884163628
240      -0.000640950576
241      -0.000027259228
242       0.000000751899
243       0.000341037657
 Sym=     1a
 Ene= -1.01748991980794E+01
 Spin= Alpha
 Occup= 2.000000
  1       0.000050700765
  2       0.000054859418
  3       0.000061485704
  4      -0.000305273535
  5       0.004394777365
  6       0.000019137072
  7       0.000000157178
  8       0.000047014971
  9      -0.000094318744
 10      -0.000001124581
 11      -0.000371267136
 12      -0.001107901410
 13      -0.000004939213
 14      -0.001296719854
 15      -0.000031397217
 16      -0.000006108174
 17      -0.000000078074
 18       0.000020415585
 19       0.000000059413
 20       0.001252239912
 21       0.001707677632
 22      -0.000243598462
 23       0.000050285931
 24       0.024387833023
 25       0.000154538889
 26       0.000000325695
 27       0.000015035864
 28      -0.000196138658
 29      -0.000001689627
 30      -0.000573446591
 31      -0.009226488189
 32       0.000008498987
 33       0.011204323376
 34       0.000041770133
 35       0.000134059767
 36       0.000000420531
 37      -0.000006554999
 38       0.000000301591
 39       0.008080123737
 40       0.010779229887
 41      -0.000497894340
 42       0.005937828461
 43      -0.051752016588
 44       0.000075949474
 45       0.000000130542
 46      -0.000008111713
 47      -0.000337777344
 48       0.000000463137
 49       0.000443622675
 50       0.002549064903
 51       0.000041020195
 52       0.014452643070
 53       0.000558916579
 54       0.000063676270
 55       0.000001308308
 56      -0.000491203876
 57      -0.000001824844
 58       0.466541489034
 59       0.608623416106
 60       0.038685122835
 61      -0.034322147503
 62       0.063380589705
 63      -0.000049369628
 64       0.000000125070
 65       0.000067338630
 66       0.000378111005
 67      -0.000001213034
 68      -0.000725689975
 69       0.007605471136
 70      -0.000021542912
 71      -0.014780555815
 72      -0.000026283912
 73       0.000228005648
 74       0.000000850094
 75       0.000212255752
 76       0.000001420711
 77       0.004497086241
 78       0.005989724397
 79      -0.000803533430
 80       0.006511455480
 81      -0.004861397421
 82      -0.000061619031
 83      -0.000000014857
 84       0.000012323916
 85       0.001173804812
 86      -0.000001672239
 87      -0.001400031311
 88      -0.002294277609
 89       0.000002168502
 90       0.002097624623
 91      -0.000227327932
 92       0.000314829424
 93      -0.000000628968
 94      -0.000086855884
 95       0.000000474745
 96       0.007745754930
 97       0.010327768921
 98      -0.000387578001
 99       0.005428766556
100      -0.048280263435
101      -0.000024216389
102      -0.000000151518
103      -0.000045323735
104      -0.000256231056
105       0.000000497918
106       0.000425793131
107      -0.012156868970
108      -0.000020695570
109       0.001685025615
110      -0.000464839200
111      -0.000579254090
112      -0.000002939722
113       0.000088744078
114      -0.000001078966
115       0.000838557603
116       0.001170979783
117      -0.000323546524
118       0.000318306668
119       0.021622326518
120      -0.000088572283
121      -0.000000557336
122      -0.000138266823
123       0.000608123266
124       0.000001311265
125      -0.000044021243
126      -0.003229813908
127       0.000019535508
128       0.010512045068
129      -0.000107961986
130       0.000037645703
131      -0.000000236806
132       0.000083578881
133       0.000000416840
134       0.000058237889
135       0.000060420715
136       0.000091760280
137      -0.000420609245
138       0.004064384766
139      -0.000037430099
140      -0.000000102760
141       0.000002972018
142       0.000266223431
143       0.000000124588
144      -0.000077917108
145       0.001403242745
146       0.000001850572
147       0.000315540123
148       0.000021919476
149       0.000023066468
150       0.000000152261
151      -0.000008542512
152       0.000000066551
153      -0.000212573130
154      -0.000186362659
155      -0.000441751420
156       0.000499389878
157      -0.002244092881
158       0.000044766011
159      -0.000000086704
160      -0.000083782185
161       0.000033590149
162      -0.000000083532
163      -0.000007829188
164       0.003977712547
165      -0.000001968728
166      -0.004290082370
167      -0.000012749496
168      -0.000014366850
169      -0.000000199795
170      -0.000043673862
171      -0.000000215186
172       0.000049363742
173      -0.000082179943
174       0.000249930279
175       0.000022661845
176      -0.000000140452
177      -0.000070613069
178       0.000019637422
179      -0.000171061786
180      -0.000605471416
181       0.000008661464