 Generated by Multiwfn
GAUSSIAN             33 MOL ORBITALS    411 PRIMITIVES       21 NUCLEI
  C    1    (CENTRE  1)   1.91014978  1.89281389  0.01486285  CHARGE =  6.0
  C    2    (CENTRE  2)  -0.94231503  1.88714734 -0.00491151  CHARGE =  6.0
  C    3    (CENTRE  3)  -2.31535836  1.88994670  2.24965822  CHARGE =  6.0
  C    4    (CENTRE  4)  -4.94942177  1.88467782  2.25843394  CHARGE =  6.0
  C    5    (CENTRE  5)  -6.41331089  1.88801314  4.70605904  CHARGE =  6.0
  C    6    (CENTRE  6)  -6.21515858  1.87636546 -0.05835701  CHARGE =  6.0
  C    7    (CENTRE  7)  -4.90460545  1.87344260 -2.34278948  CHARGE =  6.0
  C    8    (CENTRE  8)  -6.29284566  1.86424837 -4.83417817  CHARGE =  6.0
  C    9    (CENTRE  9)  -2.26552196  1.87902766 -2.28247867  CHARGE =  6.0
  H   10    (CENTRE 10)   2.64693247  1.89878188  1.94011974  CHARGE =  1.0
  H   11    (CENTRE 11)   2.66318612  3.55504849 -0.95449603  CHARGE =  1.0
  H   12    (CENTRE 12)   2.66971162  0.22904725 -0.94673812  CHARGE =  1.0
  H   13    (CENTRE 13)  -1.30697225  1.89641501  4.03557985  CHARGE =  1.0
  H   14    (CENTRE 14)  -5.14974492  1.89346011  6.33491322  CHARGE =  1.0
  H   15    (CENTRE 15)  -7.62888821  0.22352426  4.85489013  CHARGE =  1.0
  H   16    (CENTRE 16)  -7.63358737  3.54972013  4.84746642  CHARGE =  1.0
  H   17    (CENTRE 17)  -8.26680446  1.87213566 -0.08109183  CHARGE =  1.0
  H   18    (CENTRE 18)  -8.33536622  1.86447409 -4.55488327  CHARGE =  1.0
  H   19    (CENTRE 19)  -5.80951082  0.19744223 -5.95603841  CHARGE =  1.0
  H   20    (CENTRE 20)  -5.81058632  3.52341594 -5.96769571  CHARGE =  1.0
  H   21    (CENTRE 21)  -1.22201954  1.87691513 -4.05012044  CHARGE =  1.0
CENTRE ASSIGNMENTS    1  1  1  1  1  1  1  1  1  1  1  1  1  1  1  1  1  1  1  1
CENTRE ASSIGNMENTS    1  1  1  1  1  1  1  1  1  1  1  1  1  1  1  2  2  2  2  2
CENTRE ASSIGNMENTS    2  2  2  2  2  2  2  2  2  2  2  2  2  2  2  2  2  2  2  2
CENTRE ASSIGNMENTS    2  2  2  2  2  2  2  2  2  2  3  3  3  3  3  3  3  3  3  3
CENTRE ASSIGNMENTS    3  3  3  3  3  3  3  3  3  3  3  3  3  3  3  3  3  3  3  3
CENTRE ASSIGNMENTS    3  3  3  3  3  4  4  4  4  4  4  4  4  4  4  4  4  4  4  4
CENTRE ASSIGNMENTS    4  4  4  4  4  4  4  4  4  4  4  4  4  4  4  4  4  4  4  4
CENTRE ASSIGNMENTS    5  5  5  5  5  5  5  5  5  5  5  5  5  5  5  5  5  5  5  5
CENTRE ASSIGNMENTS    5  5  5  5  5  5  5  5  5  5  5  5  5  5  5  6  6  6  6  6
CENTRE ASSIGNMENTS    6  6  6  6  6  6  6  6  6  6  6  6  6  6  6  6  6  6  6  6
CENTRE ASSIGNMENTS    6  6  6  6  6  6  6  6  6  6  7  7  7  7  7  7  7  7  7  7
CENTRE ASSIGNMENTS    7  7  7  7  7  7  7  7  7  7  7  7  7  7  7  7  7  7  7  7
CENTRE ASSIGNMENTS    7  7  7  7  7  8  8  8  8  8  8  8  8  8  8  8  8  8  8  8
CENTRE ASSIGNMENTS    8  8  8  8  8  8  8  8  8  8  8  8  8  8  8  8  8  8  8  8
CENTRE ASSIGNMENTS    9  9  9  9  9  9  9  9  9  9  9  9  9  9  9  9  9  9  9  9
CENTRE ASSIGNMENTS    9  9  9  9  9  9  9  9  9  9  9  9  9  9  9 10 10 10 10 10
CENTRE ASSIGNMENTS   10 10 10 11 11 11 11 11 11 11 11 12 12 12 12 12 12 12 12 13
CENTRE ASSIGNMENTS   13 13 13 13 13 13 13 14 14 14 14 14 14 14 14 15 15 15 15 15
CENTRE ASSIGNMENTS   15 15 15 16 16 16 16 16 16 16 16 17 17 17 17 17 17 17 17 18
CENTRE ASSIGNMENTS   18 18 18 18 18 18 18 19 19 19 19 19 19 19 19 20 20 20 20 20
CENTRE ASSIGNMENTS   20 20 20 21 21 21 21 21 21 21 21
TYPE ASSIGNMENTS      1  1  1  1  1  1  1  1  1  1  1  2  2  2  2  3  3  3  3  4
TYPE ASSIGNMENTS      4  4  4  2  3  4  2  3  4  5  6  7  8  9 10  1  1  1  1  1
TYPE ASSIGNMENTS      1  1  1  1  1  1  2  2  2  2  3  3  3  3  4  4  4  4  2  3
TYPE ASSIGNMENTS      4  2  3  4  5  6  7  8  9 10  1  1  1  1  1  1  1  1  1  1
TYPE ASSIGNMENTS      1  2  2  2  2  3  3  3  3  4  4  4  4  2  3  4  2  3  4  5
TYPE ASSIGNMENTS      6  7  8  9 10  1  1  1  1  1  1  1  1  1  1  1  2  2  2  2
TYPE ASSIGNMENTS      3  3  3  3  4  4  4  4  2  3  4  2  3  4  5  6  7  8  9 10
TYPE ASSIGNMENTS      1  1  1  1  1  1  1  1  1  1  1  2  2  2  2  3  3  3  3  4
TYPE ASSIGNMENTS      4  4  4  2  3  4  2  3  4  5  6  7  8  9 10  1  1  1  1  1
TYPE ASSIGNMENTS      1  1  1  1  1  1  2  2  2  2  3  3  3  3  4  4  4  4  2  3
TYPE ASSIGNMENTS      4  2  3  4  5  6  7  8  9 10  1  1  1  1  1  1  1  1  1  1
TYPE ASSIGNMENTS      1  2  2  2  2  3  3  3  3  4  4  4  4  2  3  4  2  3  4  5
TYPE ASSIGNMENTS      6  7  8  9 10  1  1  1  1  1  1  1  1  1  1  1  2  2  2  2
TYPE ASSIGNMENTS      3  3  3  3  4  4  4  4  2  3  4  2  3  4  5  6  7  8  9 10
TYPE ASSIGNMENTS      1  1  1  1  1  1  1  1  1  1  1  2  2  2  2  3  3  3  3  4
TYPE ASSIGNMENTS      4  4  4  2  3  4  2  3  4  5  6  7  8  9 10  1  1  1  1  1
TYPE ASSIGNMENTS      2  3  4  1  1  1  1  1  2  3  4  1  1  1  1  1  2  3  4  1
TYPE ASSIGNMENTS      1  1  1  1  2  3  4  1  1  1  1  1  2  3  4  1  1  1  1  1
TYPE ASSIGNMENTS      2  3  4  1  1  1  1  1  2  3  4  1  1  1  1  1  2  3  4  1
TYPE ASSIGNMENTS      1  1  1  1  2  3  4  1  1  1  1  1  2  3  4  1  1  1  1  1
TYPE ASSIGNMENTS      2  3  4  1  1  1  1  1  2  3  4
EXPONENTS  0.1357535D+05 0.2035233D+04 0.4632256D+03 0.1312002D+03 0.4285302D+02
EXPONENTS  0.1558419D+02 0.6206714D+01 0.2576490D+01 0.5769634D+00 0.2297283D+00
EXPONENTS  0.9516444D-01 0.3469723D+02 0.7958262D+01 0.2378083D+01 0.8143321D+00
EXPONENTS  0.3469723D+02 0.7958262D+01 0.2378083D+01 0.8143321D+00 0.3469723D+02
EXPONENTS  0.7958262D+01 0.2378083D+01 0.8143321D+00 0.2888755D+00 0.2888755D+00
EXPONENTS  0.2888755D+00 0.1005682D+00 0.1005682D+00 0.1005682D+00 0.8000000D+00
EXPONENTS  0.8000000D+00 0.8000000D+00 0.8000000D+00 0.8000000D+00 0.8000000D+00
EXPONENTS  0.1357535D+05 0.2035233D+04 0.4632256D+03 0.1312002D+03 0.4285302D+02
EXPONENTS  0.1558419D+02 0.6206714D+01 0.2576490D+01 0.5769634D+00 0.2297283D+00
EXPONENTS  0.9516444D-01 0.3469723D+02 0.7958262D+01 0.2378083D+01 0.8143321D+00
EXPONENTS  0.3469723D+02 0.7958262D+01 0.2378083D+01 0.8143321D+00 0.3469723D+02
EXPONENTS  0.7958262D+01 0.2378083D+01 0.8143321D+00 0.2888755D+00 0.2888755D+00
EXPONENTS  0.2888755D+00 0.1005682D+00 0.1005682D+00 0.1005682D+00 0.8000000D+00
EXPONENTS  0.8000000D+00 0.8000000D+00 0.8000000D+00 0.8000000D+00 0.8000000D+00
EXPONENTS  0.1357535D+05 0.2035233D+04 0.4632256D+03 0.1312002D+03 0.4285302D+02
EXPONENTS  0.1558419D+02 0.6206714D+01 0.2576490D+01 0.5769634D+00 0.2297283D+00
EXPONENTS  0.9516444D-01 0.3469723D+02 0.7958262D+01 0.2378083D+01 0.8143321D+00
EXPONENTS  0.3469723D+02 0.7958262D+01 0.2378083D+01 0.8143321D+00 0.3469723D+02
EXPONENTS  0.7958262D+01 0.2378083D+01 0.8143321D+00 0.2888755D+00 0.2888755D+00
EXPONENTS  0.2888755D+00 0.1005682D+00 0.1005682D+00 0.1005682D+00 0.8000000D+00
EXPONENTS  0.8000000D+00 0.8000000D+00 0.8000000D+00 0.8000000D+00 0.8000000D+00
EXPONENTS  0.1357535D+05 0.2035233D+04 0.4632256D+03 0.1312002D+03 0.4285302D+02
EXPONENTS  0.1558419D+02 0.6206714D+01 0.2576490D+01 0.5769634D+00 0.2297283D+00
EXPONENTS  0.9516444D-01 0.3469723D+02 0.7958262D+01 0.2378083D+01 0.8143321D+00
EXPONENTS  0.3469723D+02 0.7958262D+01 0.2378083D+01 0.8143321D+00 0.3469723D+02
EXPONENTS  0.7958262D+01 0.2378083D+01 0.8143321D+00 0.2888755D+00 0.2888755D+00
EXPONENTS  0.2888755D+00 0.1005682D+00 0.1005682D+00 0.1005682D+00 0.8000000D+00
EXPONENTS  0.8000000D+00 0.8000000D+00 0.8000000D+00 0.8000000D+00 0.8000000D+00
EXPONENTS  0.1357535D+05 0.2035233D+04 0.4632256D+03 0.1312002D+03 0.4285302D+02
EXPONENTS  0.1558419D+02 0.6206714D+01 0.2576490D+01 0.5769634D+00 0.2297283D+00
EXPONENTS  0.9516444D-01 0.3469723D+02 0.7958262D+01 0.2378083D+01 0.8143321D+00
EXPONENTS  0.3469723D+02 0.7958262D+01 0.2378083D+01 0.8143321D+00 0.3469723D+02
EXPONENTS  0.7958262D+01 0.2378083D+01 0.8143321D+00 0.2888755D+00 0.2888755D+00
EXPONENTS  0.2888755D+00 0.1005682D+00 0.1005682D+00 0.1005682D+00 0.8000000D+00
EXPONENTS  0.8000000D+00 0.8000000D+00 0.8000000D+00 0.8000000D+00 0.8000000D+00
EXPONENTS  0.1357535D+05 0.2035233D+04 0.4632256D+03 0.1312002D+03 0.4285302D+02
EXPONENTS  0.1558419D+02 0.6206714D+01 0.2576490D+01 0.5769634D+00 0.2297283D+00
EXPONENTS  0.9516444D-01 0.3469723D+02 0.7958262D+01 0.2378083D+01 0.8143321D+00
EXPONENTS  0.3469723D+02 0.7958262D+01 0.2378083D+01 0.8143321D+00 0.3469723D+02
EXPONENTS  0.7958262D+01 0.2378083D+01 0.8143321D+00 0.2888755D+00 0.2888755D+00
EXPONENTS  0.2888755D+00 0.1005682D+00 0.1005682D+00 0.1005682D+00 0.8000000D+00
EXPONENTS  0.8000000D+00 0.8000000D+00 0.8000000D+00 0.8000000D+00 0.8000000D+00
EXPONENTS  0.1357535D+05 0.2035233D+04 0.4632256D+03 0.1312002D+03 0.4285302D+02
EXPONENTS  0.1558419D+02 0.6206714D+01 0.2576490D+01 0.5769634D+00 0.2297283D+00
EXPONENTS  0.9516444D-01 0.3469723D+02 0.7958262D+01 0.2378083D+01 0.8143321D+00
EXPONENTS  0.3469723D+02 0.7958262D+01 0.2378083D+01 0.8143321D+00 0.3469723D+02
EXPONENTS  0.7958262D+01 0.2378083D+01 0.8143321D+00 0.2888755D+00 0.2888755D+00
EXPONENTS  0.2888755D+00 0.1005682D+00 0.1005682D+00 0.1005682D+00 0.8000000D+00
EXPONENTS  0.8000000D+00 0.8000000D+00 0.8000000D+00 0.8000000D+00 0.8000000D+00
EXPONENTS  0.1357535D+05 0.2035233D+04 0.4632256D+03 0.1312002D+03 0.4285302D+02
EXPONENTS  0.1558419D+02 0.6206714D+01 0.2576490D+01 0.5769634D+00 0.2297283D+00
EXPONENTS  0.9516444D-01 0.3469723D+02 0.7958262D+01 0.2378083D+01 0.8143321D+00
EXPONENTS  0.3469723D+02 0.7958262D+01 0.2378083D+01 0.8143321D+00 0.3469723D+02
EXPONENTS  0.7958262D+01 0.2378083D+01 0.8143321D+00 0.2888755D+00 0.2888755D+00
EXPONENTS  0.2888755D+00 0.1005682D+00 0.1005682D+00 0.1005682D+00 0.8000000D+00
EXPONENTS  0.8000000D+00 0.8000000D+00 0.8000000D+00 0.8000000D+00 0.8000000D+00
EXPONENTS  0.1357535D+05 0.2035233D+04 0.4632256D+03 0.1312002D+03 0.4285302D+02
EXPONENTS  0.1558419D+02 0.6206714D+01 0.2576490D+01 0.5769634D+00 0.2297283D+00
EXPONENTS  0.9516444D-01 0.3469723D+02 0.7958262D+01 0.2378083D+01 0.8143321D+00
EXPONENTS  0.3469723D+02 0.7958262D+01 0.2378083D+01 0.8143321D+00 0.3469723D+02
EXPONENTS  0.7958262D+01 0.2378083D+01 0.8143321D+00 0.2888755D+00 0.2888755D+00
EXPONENTS  0.2888755D+00 0.1005682D+00 0.1005682D+00 0.1005682D+00 0.8000000D+00
EXPONENTS  0.8000000D+00 0.8000000D+00 0.8000000D+00 0.8000000D+00 0.8000000D+00
EXPONENTS  0.3406134D+02 0.5123575D+01 0.1164663D+01 0.3272304D+00 0.1030724D+00
EXPONENTS  0.8000000D+00 0.8000000D+00 0.8000000D+00 0.3406134D+02 0.5123575D+01
EXPONENTS  0.1164663D+01 0.3272304D+00 0.1030724D+00 0.8000000D+00 0.8000000D+00
EXPONENTS  0.8000000D+00 0.3406134D+02 0.5123575D+01 0.1164663D+01 0.3272304D+00
EXPONENTS  0.1030724D+00 0.8000000D+00 0.8000000D+00 0.8000000D+00 0.3406134D+02
EXPONENTS  0.5123575D+01 0.1164663D+01 0.3272304D+00 0.1030724D+00 0.8000000D+00
EXPONENTS  0.8000000D+00 0.8000000D+00 0.3406134D+02 0.5123575D+01 0.1164663D+01
EXPONENTS  0.3272304D+00 0.1030724D+00 0.8000000D+00 0.8000000D+00 0.8000000D+00
EXPONENTS  0.3406134D+02 0.5123575D+01 0.1164663D+01 0.3272304D+00 0.1030724D+00
EXPONENTS  0.8000000D+00 0.8000000D+00 0.8000000D+00 0.3406134D+02 0.5123575D+01
EXPONENTS  0.1164663D+01 0.3272304D+00 0.1030724D+00 0.8000000D+00 0.8000000D+00
EXPONENTS  0.8000000D+00 0.3406134D+02 0.5123575D+01 0.1164663D+01 0.3272304D+00
EXPONENTS  0.1030724D+00 0.8000000D+00 0.8000000D+00 0.8000000D+00 0.3406134D+02
EXPONENTS  0.5123575D+01 0.1164663D+01 0.3272304D+00 0.1030724D+00 0.8000000D+00
EXPONENTS  0.8000000D+00 0.8000000D+00 0.3406134D+02 0.5123575D+01 0.1164663D+01
EXPONENTS  0.3272304D+00 0.1030724D+00 0.8000000D+00 0.8000000D+00 0.8000000D+00
EXPONENTS  0.3406134D+02 0.5123575D+01 0.1164663D+01 0.3272304D+00 0.1030724D+00
EXPONENTS  0.8000000D+00 0.8000000D+00 0.8000000D+00 0.3406134D+02 0.5123575D+01
EXPONENTS  0.1164663D+01 0.3272304D+00 0.1030724D+00 0.8000000D+00 0.8000000D+00
EXPONENTS  0.8000000D+00
MO    1     MO 0.0        OCC NO =    2.0000000  ORB. ENERGY =  -10.175490
 -0.41287717D-05 -0.77058341D-05 -0.13151826D-04 -0.20439252D-04 -0.27376937D-04
 -0.28122044D-04 -0.28013847D-04 -0.83013144D-05  0.14559058D-05 -0.43194400D-04
  0.25628622D-03  0.12079621D-04  0.12893355D-04  0.11291205D-04  0.71302554D-05
 -0.11630449D-06 -0.12413924D-06 -0.10871349D-06 -0.68651217D-07 -0.62687056D-04
 -0.66909917D-04 -0.58595579D-04 -0.37002378D-04 -0.60759613D-05  0.12684342D-06
  0.57960784D-04 -0.60577601D-04 -0.59149844D-07  0.23943607D-04  0.36795096D-04
 -0.12550385D-04 -0.24244711D-04  0.18557567D-06 -0.13093995D-04 -0.87244273D-07
 -0.13001600D-02 -0.24265853D-02 -0.41415411D-02 -0.64363686D-02 -0.86210620D-02
 -0.88556980D-02 -0.55920307D-02 -0.16570807D-02 -0.28384956D-03  0.13832451D-03
  0.23292202D-02  0.22677204D-03  0.24204835D-03  0.21197101D-03  0.13385706D-03
  0.39703885D-06  0.42378504D-06  0.37112480D-06  0.23436069D-06 -0.23919192D-04
 -0.25530489D-04 -0.22358027D-04 -0.14118816D-04 -0.90972064D-04  0.26141123D-06
  0.18141012D-03 -0.44665753D-03 -0.23196063D-05 -0.59225812D-03 -0.23452808D-04
 -0.19478145D-04  0.42930953D-04 -0.63983893D-06 -0.25260761D-03 -0.23832003D-06
 -0.17907066D-03 -0.33421291D-03 -0.57041327D-03 -0.88647921D-03 -0.11873764D-02
 -0.12196928D-02 -0.60573510D-03 -0.17949686D-03 -0.24625614D-03  0.13998431D-03
 -0.80024418D-04  0.63004420D-04  0.67248659D-04  0.58892228D-04  0.37189709D-04
  0.35429911D-06  0.37816616D-06  0.33117460D-06  0.20913264D-06  0.99259872D-04
  0.10594643D-03  0.92781349D-04  0.58590266D-04  0.19919507D-05  0.70032488D-07
  0.20574020D-04  0.90761937D-04  0.11740910D-05  0.39717908D-03 -0.30223943D-04
  0.45893909D-04 -0.15669966D-04 -0.25117237D-06  0.25727804D-04 -0.26375848D-06
 -0.52737369D-03 -0.98427679D-03 -0.16799008D-02 -0.26107337D-02 -0.34968938D-02
 -0.35920674D-02 -0.21887030D-02 -0.64857609D-03 -0.20567036D-03  0.59643070D-04
  0.25637205D-02 -0.13811240D-03 -0.14741623D-03 -0.12909804D-03 -0.81523804D-04
  0.11019279D-06  0.11761583D-06  0.10300069D-06  0.65043655D-07  0.16787185D-03
  0.17918040D-03  0.15691514D-03  0.99089959D-04  0.19895996D-03  0.50671256D-06
  0.32349510D-04 -0.42547649D-03 -0.33894429D-05 -0.99167327D-03  0.13415579D-03
 -0.15046233D-04 -0.11910955D-03  0.48863584D-06 -0.52756303D-04 -0.67189453D-06
  0.12108479D-05  0.22598957D-05  0.38570457D-05  0.59942344D-05  0.80288544D-05
  0.82473726D-05 -0.16343979D-05 -0.48431944D-06 -0.10321204D-04 -0.23367846D-04
  0.48455036D-03 -0.87634556D-04 -0.93537984D-04 -0.81914797D-04 -0.51728175D-04
 -0.22525590D-06 -0.24043008D-06 -0.21055383D-06 -0.13296212D-06 -0.19952709D-04
 -0.21296806D-04 -0.18650429D-04 -0.11777514D-04  0.91447041D-04  0.27988453D-06
  0.26982975D-04  0.77213778D-04  0.51809544D-07 -0.65928038D-04  0.23468501D-05
 -0.15566109D-04  0.13219259D-04 -0.10207983D-06 -0.53378588D-04  0.55287053D-07
  0.41377978D-02  0.77226802D-02  0.13180578D-01  0.20483935D-01  0.27436787D-01
  0.28183523D-01  0.18681725D-01  0.55359364D-02 -0.22383702D-03  0.13474533D-02
 -0.56833924D-02 -0.38691490D-04 -0.41297910D-04 -0.36166162D-04 -0.22838481D-04
  0.18649726D-06  0.19906049D-06  0.17432490D-06  0.11008400D-06  0.98900779D-04
  0.10556315D-03  0.92445693D-04  0.58378304D-04 -0.67050724D-04 -0.53857465D-06
 -0.14877320D-03 -0.92963494D-03 -0.29328605D-05 -0.42972400D-03  0.31015261D-03
  0.16968676D-03 -0.47983937D-03  0.33838250D-05  0.11632997D-02 -0.80662996D-06
  0.25361882D+00  0.47334769D+00  0.80787964D+00  0.12555257D+01  0.16816881D+01
  0.17274580D+01  0.11188897D+01  0.33155944D+00  0.18237195D-01 -0.80683900D-02
  0.70614312D-02 -0.46780147D-04 -0.49931452D-04 -0.43726886D-04 -0.27612984D-04
 -0.51941561D-06 -0.55440560D-06 -0.48551424D-06 -0.30659619D-06 -0.10585771D-03
 -0.11298872D-03 -0.98948554D-04 -0.62484780D-04  0.13207267D-03  0.88166021D-06
  0.21537178D-03  0.63048485D-03  0.35981285D-05  0.92925458D-03  0.22383354D-03
 -0.19446373D-03 -0.29369805D-04  0.61667308D-06 -0.43644027D-03 -0.10965773D-06
  0.23677456D-02  0.44191000D-02  0.75422379D-02  0.11721391D-01  0.15699977D-01
  0.16127277D-01  0.10666827D-01  0.31608898D-02 -0.36918266D-03  0.15059190D-02
 -0.69711151D-03  0.29616289D-04  0.31611365D-04  0.27683284D-04  0.17481649D-04
 -0.39063754D-06 -0.41695251D-06 -0.36514129D-06 -0.23058218D-06 -0.73510358D-04
 -0.78462321D-04 -0.68712462D-04 -0.43391064D-04  0.18307217D-03  0.19876417D-05
  0.50519648D-03 -0.67069970D-04 -0.11306181D-05 -0.25815253D-03  0.83236045D-04
  0.21294212D-03 -0.29617817D-03 -0.20838789D-05 -0.56389877D-03 -0.38451646D-05
  0.39598978D-02  0.73906521D-02  0.12613894D-01  0.19603251D-01  0.26257173D-01
  0.26971804D-01  0.17871303D-01  0.52957849D-02 -0.17864939D-03  0.12407978D-02
 -0.52730480D-02  0.72770797D-04  0.77672940D-04  0.68021170D-04  0.42954522D-04
  0.18845110D-06  0.20114595D-06  0.17615121D-06  0.11123730D-06  0.37934375D-05
  0.40489792D-05  0.35458463D-05  0.22391578D-05 -0.73329353D-04 -0.49161514D-06
 -0.12208418D-03  0.27010835D-03 -0.12489772D-05 -0.76659516D-03 -0.78637688D-03
  0.17913259D-03  0.60724429D-03 -0.43452406D-05 -0.16090857D-03  0.17067818D-05
 -0.52629153D-05 -0.94984865D-05 -0.14022942D-04  0.36591396D-05  0.29712320D-05
 -0.43250422D-04  0.17913160D-08  0.34051546D-04  0.13562454D-04  0.24477457D-04
  0.36136911D-04 -0.79182409D-04 -0.12472901D-04  0.49872270D-04 -0.15284618D-04
 -0.10474615D-06  0.13561743D-04  0.24476174D-04  0.36135017D-04 -0.79181727D-04
 -0.12451138D-04  0.49782137D-04  0.15496859D-04 -0.18754572D-06 -0.58543547D-05
 -0.10565914D-04 -0.15598821D-04 -0.17452773D-04 -0.24936436D-03 -0.24003590D-04
 -0.20282421D-06 -0.55451063D-04 -0.69648841D-05 -0.12570192D-04 -0.18557806D-04
 -0.47878630D-05 -0.17191230D-04  0.69374074D-04  0.31115623D-07 -0.10829701D-04
  0.16895756D-04  0.30493387D-04  0.45018434D-04 -0.97605467D-04 -0.28009478D-04
 -0.28450265D-04  0.20500151D-04  0.47026249D-04  0.16891707D-04  0.30486080D-04
  0.45007646D-04 -0.97667691D-04 -0.28133268D-04 -0.28444875D-04 -0.20292198D-04
  0.47100026D-04 -0.28545993D-04 -0.51519683D-04 -0.76060276D-04 -0.30821414D-03
  0.37263706D-04 -0.34392213D-03 -0.26522153D-06  0.17814735D-03 -0.31701589D-04
 -0.57214889D-04 -0.84468305D-04 -0.17158698D-03  0.41198942D-04 -0.27472055D-03
 -0.16135648D-06 -0.43999982D-04 -0.32251039D-04 -0.58206534D-04 -0.85932304D-04
 -0.12011408D-03 -0.11554221D-03 -0.22505410D-05 -0.15468862D-03 -0.19911091D-03
 -0.32235634D-04 -0.58178730D-04 -0.85891257D-04 -0.12028283D-03 -0.11487396D-03
 -0.21988150D-05  0.15341003D-03 -0.20000123D-03 -0.29362986D-04 -0.52994188D-04
 -0.78237140D-04 -0.26737323D-03  0.92139014D-04  0.30512075D-03  0.15043280D-06
 -0.20157736D-03
MO    2     MO 0.0        OCC NO =    2.0000000  ORB. ENERGY =  -10.175210
 -0.23957862D-02 -0.44714342D-02 -0.76315587D-02 -0.11860205D-01 -0.15885908D-01
 -0.16318269D-01 -0.10794238D-01 -0.31986454D-02  0.37634296D-03 -0.15274123D-02
  0.68721005D-03 -0.51377070D-04 -0.54838043D-04 -0.48023776D-04 -0.30326416D-04
  0.19576474D-07  0.20895227D-07  0.18298751D-07  0.11555433D-07  0.53219401D-04
  0.56804481D-04  0.49745861D-04  0.31413892D-04  0.53673457D-03  0.88760747D-06
 -0.70549574D-04 -0.25421894D-03 -0.32458731D-06  0.74228168D-04  0.44242955D-03
 -0.21157112D-03 -0.23085843D-03  0.25401698D-05 -0.16322396D-04 -0.11861309D-06
 -0.25361302D+00 -0.47333687D+00 -0.80786118D+00 -0.12554970D+01 -0.16816497D+01
 -0.17274185D+01 -0.11188732D+01 -0.33155453D+00 -0.18242467D-01  0.80919393D-02
 -0.74400847D-02 -0.11466797D-03 -0.12239248D-03 -0.10718378D-03 -0.67685224D-04
 -0.26676379D-06 -0.28473411D-06 -0.24935257D-06 -0.15746305D-06 -0.99527568D-06
 -0.10623216D-05 -0.93031572D-06 -0.58748279D-06  0.24923850D-03  0.59442048D-06
  0.34245691D-04  0.12216030D-02  0.23060415D-05 -0.41001440D-04  0.15648112D-03
  0.19259898D-03 -0.34908010D-03 -0.15136900D-06 -0.13376230D-04 -0.26519689D-05
 -0.41845255D-02 -0.78098916D-02 -0.13329425D-01 -0.20715258D-01 -0.27746627D-01
 -0.28501796D-01 -0.18893534D-01 -0.55987013D-02  0.24688542D-03 -0.14018987D-02
  0.61065513D-02  0.54612101D-04  0.58290999D-04  0.51047661D-04  0.32235963D-04
 -0.61085724D-07 -0.65200712D-07 -0.57098763D-07 -0.36057158D-07 -0.74737585D-04
 -0.79772219D-04 -0.69859590D-04 -0.44115461D-04 -0.17120291D-03 -0.30225081D-06
  0.24236795D-04 -0.76887708D-03 -0.35148649D-05 -0.80169132D-03 -0.19397010D-03
 -0.15658657D-03  0.35055667D-03 -0.33174508D-05 -0.12895175D-02 -0.89750306D-07
  0.76248402D-03  0.14230807D-02  0.24288234D-02  0.37746342D-02  0.50558564D-02
  0.51934597D-02  0.32278909D-02  0.95651758D-03  0.21363078D-03 -0.40436181D-04
 -0.28879076D-02  0.98344087D-04  0.10496895D-03  0.91925335D-04  0.58049704D-04
 -0.25505843D-06 -0.27224022D-06 -0.23841120D-06 -0.15055370D-06 -0.18361065D-03
 -0.19597943D-03 -0.17162670D-03 -0.10838012D-03  0.10479079D-03  0.52165481D-06
  0.12496863D-03 -0.10312638D-02 -0.13645694D-05  0.27191374D-03  0.88408484D-04
  0.13993457D-04 -0.10240194D-03 -0.18775374D-06 -0.18551850D-03 -0.89036501D-06
 -0.13991064D-04 -0.26112565D-04 -0.44567260D-04 -0.69261974D-04 -0.92771532D-04
 -0.95296458D-04 -0.38735315D-04 -0.11478396D-04 -0.30946670D-04  0.89342922D-04
 -0.64588416D-03 -0.28232656D-04 -0.30134525D-04 -0.26389958D-04 -0.16664930D-04
 -0.22534156D-06 -0.24052151D-06 -0.21063390D-06 -0.13301269D-06 -0.56438132D-04
 -0.60240039D-04 -0.52754511D-04 -0.33313817D-04  0.67012999D-04  0.31338037D-06
  0.78180858D-04  0.31476228D-04  0.35067085D-06  0.14413921D-03  0.98310567D-05
  0.43495764D-05 -0.14180633D-04  0.19436704D-06  0.72080598D-04 -0.48808795D-09
  0.13287829D-03  0.24800065D-03  0.42327169D-03  0.65780650D-03  0.88108543D-03
  0.90506558D-03  0.41012927D-03  0.12153318D-03  0.22608302D-03 -0.13035320D-03
  0.17414657D-03  0.12340265D-03  0.13171556D-03  0.11534837D-03  0.72841057D-04
  0.21635009D-06  0.23092433D-06  0.20222929D-06  0.12770528D-06 -0.20624451D-05
 -0.22013799D-05 -0.19278328D-05 -0.12174024D-05  0.13830653D-04 -0.88147758D-10
 -0.23152861D-04  0.42520613D-03  0.10629691D-05  0.78641816D-04  0.77162000D-05
 -0.48082280D-04  0.40366080D-04  0.14278405D-06 -0.31909189D-04  0.37548432D-06
 -0.12274025D-02 -0.22907927D-02 -0.39097788D-02 -0.60761868D-02 -0.81386239D-02
 -0.83601296D-02 -0.55590795D-02 -0.16473163D-02  0.10668894D-03 -0.76136188D-04
 -0.23790925D-02  0.83721830D-04  0.89361680D-04  0.78257448D-04  0.49418604D-04
  0.68674565D-06  0.73300769D-06  0.64192293D-06  0.40536634D-06  0.21761646D-03
  0.23227601D-03  0.20341300D-03  0.12845278D-03  0.12447208D-03 -0.18173683D-06
 -0.18281719D-03 -0.90068150D-03 -0.20458580D-05 -0.35090967D-04  0.77732623D-04
  0.22303814D-04 -0.10003644D-03  0.75258145D-06  0.19921988D-03 -0.10220716D-06
 -0.21267254D-04 -0.39692661D-04 -0.67744902D-04 -0.10528235D-03 -0.14101828D-03
 -0.14485632D-03 -0.84248987D-04 -0.24965416D-04  0.21386082D-05  0.22388955D-04
 -0.26328501D-03 -0.59381056D-04 -0.63381211D-04 -0.55505356D-04 -0.35050941D-04
  0.10818864D-07  0.11547668D-07  0.10112735D-07  0.63860664D-08  0.45800577D-04
  0.48885894D-04  0.42811251D-04  0.27034772D-04  0.65971169D-04  0.12146882D-06
 -0.45911025D-04  0.11304983D-05 -0.67877267D-08 -0.67093044D-04  0.89149132D-05
  0.12421771D-04 -0.21336684D-04 -0.17505573D-07 -0.32996454D-04 -0.37021374D-06
 -0.41625182D-02 -0.77688177D-02 -0.13259323D-01 -0.20606312D-01 -0.27600702D-01
 -0.28351899D-01 -0.18772813D-01 -0.55629285D-02  0.16727857D-03 -0.12421219D-02
  0.55196266D-02  0.46739494D-04  0.49888061D-04  0.43688887D-04  0.27588988D-04
  0.25967313D-06  0.27716579D-06  0.24272471D-06  0.15327763D-06  0.70458608D-04
  0.75204992D-04  0.65859894D-04  0.41589703D-04 -0.13859929D-03 -0.26556686D-06
  0.31986394D-05 -0.67185335D-03  0.53418424D-07  0.58675543D-03 -0.20796337D-03
 -0.18691640D-03  0.39487977D-03  0.29785249D-05  0.12800863D-02  0.53717088D-05
  0.31451852D-04  0.56764165D-04  0.83802885D-04  0.16907053D-03 -0.53617888D-04
 -0.16977672D-03 -0.83285841D-06 -0.21298212D-03  0.33782252D-04  0.60970061D-04
  0.90012194D-04  0.11190742D-03  0.11563733D-03 -0.17328587D-03 -0.15667663D-03
  0.95574153D-04  0.33781181D-04  0.60968128D-04  0.90009340D-04  0.11191506D-03
  0.11561847D-03 -0.17385754D-03  0.15643056D-03  0.94854746D-04  0.26255414D-04
  0.47385656D-04  0.69957071D-04  0.34008615D-03  0.24520845D-04 -0.19057080D-04
 -0.10044343D-05 -0.39291341D-03 -0.12089756D-04 -0.21819538D-04 -0.32212933D-04
  0.26659590D-04 -0.21891699D-04  0.71098155D-04  0.14855952D-06  0.18310558D-04
 -0.73684694D-05 -0.13298581D-04 -0.19633152D-04  0.65577347D-04  0.87653848D-04
  0.13477399D-04  0.37619498D-04 -0.64083127D-05 -0.73938374D-05 -0.13344365D-04
 -0.19700745D-04  0.65700624D-04  0.87761203D-04  0.13660127D-04 -0.37567818D-04
 -0.63746843D-05  0.46350903D-05  0.83653907D-05  0.12350113D-04  0.14988179D-04
  0.28176679D-03 -0.58139121D-04 -0.13376310D-06 -0.32157444D-05  0.53213462D-05
  0.96039423D-05  0.14178630D-04  0.88179837D-05  0.67647156D-05  0.27216554D-04
 -0.27829350D-06 -0.54619571D-04 -0.14615057D-04 -0.26377190D-04 -0.38941551D-04
  0.86388489D-04  0.12251038D-04  0.25081076D-04 -0.17319479D-04  0.47380058D-04
 -0.14618519D-04 -0.26383439D-04 -0.38950777D-04  0.86172718D-04  0.11949813D-04
  0.25099598D-04  0.17932085D-04  0.47074008D-04  0.29390803D-04  0.53044392D-04
  0.78311257D-04  0.27263586D-03 -0.83098170D-04 -0.29397888D-04  0.81089025D-06
  0.36779423D-03
MO    3     MO 0.0        OCC NO =    2.0000000  ORB. ENERGY =  -10.174899
  0.27560691D-04  0.51438570D-04  0.87792071D-04  0.13643765D-03  0.18274861D-03
  0.18772241D-03  0.10085103D-03  0.29885083D-04  0.29009847D-04 -0.72195501D-04
  0.53666466D-03  0.26020030D-04  0.27772848D-04  0.24321747D-04  0.15358880D-04
  0.21370962D-06  0.22810598D-06  0.19976115D-06  0.12614668D-06  0.63924668D-04
  0.68230899D-04  0.59752413D-04  0.37732905D-04 -0.28472554D-04 -0.33948388D-06
 -0.11207659D-03 -0.89437009D-04 -0.39872540D-06 -0.10467966D-03  0.37178389D-04
 -0.22073858D-05 -0.34971003D-04  0.11461964D-06 -0.11783898D-04 -0.15062047D-06
  0.68071157D-03  0.12704627D-02  0.21683447D-02  0.33698243D-02  0.45136421D-02
  0.46364881D-02  0.31393161D-02  0.93027032D-03 -0.11493329D-03  0.11892344D-04
  0.29781003D-02  0.21012131D-03  0.22427595D-03  0.19640705D-03  0.12402860D-03
  0.44283649D-06  0.47266780D-06  0.41393330D-06  0.26139373D-06  0.20443756D-04
  0.21820933D-04  0.19109427D-04  0.12067365D-04 -0.59209531D-04 -0.51005764D-06
 -0.17310970D-03 -0.74482214D-03  0.68609352D-06  0.90448587D-03 -0.29585264D-04
 -0.16939351D-04  0.46524615D-04  0.58182977D-06  0.25862829D-03  0.81128898D-06
  0.43923163D-02  0.81977070D-02  0.13991323D-01  0.21743914D-01  0.29124440D-01
  0.29917109D-01  0.19816041D-01  0.58720671D-02 -0.23491377D-03  0.14042636D-02
 -0.63196553D-02  0.10326593D-03  0.11022236D-03  0.96525942D-04  0.60954930D-04
  0.17749355D-06  0.18945025D-06  0.16590885D-06  0.10476937D-06 -0.11029222D-04
 -0.11772196D-04 -0.10309364D-04 -0.65102347D-05 -0.10196683D-03  0.13980989D-06
  0.13391899D-03  0.20577710D-03  0.33114170D-05  0.11667114D-02 -0.78508320D-03
  0.16254799D-03  0.62253522D-03 -0.35204915D-05  0.12284435D-03  0.25239896D-05
  0.25360970D+00  0.47333067D+00  0.80785060D+00  0.12554805D+01  0.16816277D+01
  0.17273959D+01  0.11188653D+01  0.33155221D+00  0.18252202D-01 -0.81169979D-02
  0.77396690D-02 -0.67126216D-04 -0.71648116D-04 -0.62745001D-04 -0.39622687D-04
  0.17005345D-06  0.18150896D-06  0.15895435D-06  0.10037770D-06  0.91558061D-04
  0.97725792D-04  0.85582221D-04  0.54044107D-04  0.11414259D-03 -0.36618571D-06
 -0.21906830D-03  0.61396310D-03 -0.17390840D-05 -0.11931826D-02  0.21937988D-03
 -0.19010421D-03 -0.29275676D-04  0.27408376D-05  0.43986881D-03  0.16400025D-05
  0.24445944D-02  0.45625285D-02  0.77870327D-02  0.12101827D-01  0.16209544D-01
  0.16650713D-01  0.11011234D-01  0.32629477D-02 -0.37911872D-03  0.15399232D-02
 -0.59364558D-03 -0.83781315D-04 -0.89425172D-04 -0.78313051D-04 -0.49453716D-04
 -0.20200561D-07 -0.21561355D-07 -0.18882105D-07 -0.11923814D-07  0.16756412D-04
  0.17885194D-04  0.15662750D-04  0.98908314D-05  0.35434336D-03 -0.50480863D-06
 -0.42263569D-03 -0.18520901D-03  0.17505559D-06  0.16933390D-03  0.42820514D-04
  0.21038300D-03 -0.25320352D-03  0.91587870D-06  0.60736935D-03 -0.12134059D-05
  0.42105550D-02  0.78584724D-02  0.13412339D-01  0.20844115D-01  0.27919223D-01
  0.28679089D-01  0.18986096D-01  0.56261303D-02 -0.18286492D-03  0.12838732D-02
 -0.58957050D-02 -0.32926206D-04 -0.35144252D-04 -0.30777169D-04 -0.19435399D-04
 -0.20601391D-06 -0.21989186D-06 -0.19256773D-06 -0.12160412D-06 -0.61625152D-04
 -0.65776478D-04 -0.57602982D-04 -0.36375566D-04 -0.77349976D-04  0.15030944D-06
  0.12853668D-03 -0.98138154D-03 -0.16706810D-05  0.13602623D-03  0.34447734D-03
  0.17327215D-03 -0.51774949D-03 -0.20815427D-05 -0.11174978D-02 -0.56713157D-05
  0.45583587D-03  0.85076042D-03  0.14520236D-02  0.22565898D-02  0.30225429D-02
  0.31048063D-02  0.21526754D-02  0.63790010D-03 -0.15265394D-03  0.75277765D-04
  0.26403928D-02 -0.12042874D-03 -0.12854132D-03 -0.11256856D-03 -0.71085645D-04
 -0.75779093D-06 -0.80883888D-06 -0.70833121D-06 -0.44730234D-06 -0.18799673D-03
 -0.20066097D-03 -0.17572650D-03 -0.11096910D-03  0.18357775D-03  0.39583928D-06
 -0.13288952D-04 -0.26073159D-03  0.15770333D-05  0.84860066D-03  0.14074562D-03
 -0.20494870D-04 -0.12025075D-03  0.80416830D-06  0.72626142D-04 -0.45684646D-06
  0.31657835D-04  0.59085376D-04  0.10084315D-03  0.15672033D-03  0.20991583D-03
  0.21562903D-03  0.11107467D-03  0.32914642D-04  0.43293831D-04 -0.99471758D-04
  0.49631903D-03 -0.50892441D-04 -0.54320768D-04 -0.47570778D-04 -0.30040354D-04
 -0.13971930D-06 -0.14913137D-06 -0.13060006D-06 -0.82472311D-07  0.40409525D-05
  0.43131678D-05  0.37772064D-05  0.23852588D-05  0.80366433D-04  0.37610113D-07
 -0.23521296D-04  0.11327888D-03  0.14939021D-06  0.25472451D-04 -0.20447342D-04
 -0.39671165D-05  0.24414459D-04  0.12839028D-06  0.44499862D-04  0.29374213D-06
 -0.11555373D-03 -0.21566653D-03 -0.36808587D-03 -0.57204222D-03 -0.76621022D-03
 -0.78706387D-03 -0.34260055D-03 -0.10152247D-03 -0.20842473D-03  0.11810294D-03