 Generated by Multiwfn
GAUSSIAN             29 MOL ORBITALS    360 PRIMITIVES       18 NUCLEI
  C    1    (CENTRE  1)   1.92767538  1.88962650  0.00917744  CHARGE =  6.0
  C    2    (CENTRE  2)  -0.92287412  1.89536916  0.00127705  CHARGE =  6.0
  C    3    (CENTRE  3)  -2.30673313  1.89193835  2.24111142  CHARGE =  6.0
  C    4    (CENTRE  4)  -4.94050935  1.88062231  2.21783182  CHARGE =  6.0
  C    5    (CENTRE  5)  -6.28431914  1.87436395 -0.04622133  CHARGE =  6.0
  C    6    (CENTRE  6)  -9.13457052  1.87559379 -0.08926702  CHARGE =  6.0
  C    7    (CENTRE  7)  -4.89483622  1.87845280 -2.29589510  CHARGE =  6.0
  C    8    (CENTRE  8)  -2.27222162  1.88963201 -2.27268007  CHARGE =  6.0
  H    9    (CENTRE  9)   2.67104976  2.06190459  1.92442446  CHARGE =  1.0
  H   10    (CENTRE 10)   2.68675789  3.45387440 -1.10659967  CHARGE =  1.0
  H   11    (CENTRE 11)   2.67699492  0.14159393 -0.80080179  CHARGE =  1.0
  H   12    (CENTRE 12)  -1.31951253  1.89801801  4.03765941  CHARGE =  1.0
  H   13    (CENTRE 13)  -5.95941145  1.87785724  3.99660509  CHARGE =  1.0
  H   14    (CENTRE 14)  -9.91206029  1.75882313  1.81659401  CHARGE =  1.0
  H   15    (CENTRE 15)  -9.87155070  0.27685677 -1.17083484  CHARGE =  1.0
  H   16    (CENTRE 16)  -9.87155982  3.59677406 -0.96488435  CHARGE =  1.0
  H   17    (CENTRE 17)  -5.88385576  1.87401002 -4.09243251  CHARGE =  1.0
  H   18    (CENTRE 18)  -1.25142312  1.89393474 -4.05135038  CHARGE =  1.0
CENTRE ASSIGNMENTS    1  1  1  1  1  1  1  1  1  1  1  1  1  1  1  1  1  1  1  1
CENTRE ASSIGNMENTS    1  1  1  1  1  1  1  1  1  1  1  1  1  1  1  2  2  2  2  2
CENTRE ASSIGNMENTS    2  2  2  2  2  2  2  2  2  2  2  2  2  2  2  2  2  2  2  2
CENTRE ASSIGNMENTS    2  2  2  2  2  2  2  2  2  2  3  3  3  3  3  3  3  3  3  3
CENTRE ASSIGNMENTS    3  3  3  3  3  3  3  3  3  3  3  3  3  3  3  3  3  3  3  3
CENTRE ASSIGNMENTS    3  3  3  3  3  4  4  4  4  4  4  4  4  4  4  4  4  4  4  4
CENTRE ASSIGNMENTS    4  4  4  4  4  4  4  4  4  4  4  4  4  4  4  4  4  4  4  4
CENTRE ASSIGNMENTS    5  5  5  5  5  5  5  5  5  5  5  5  5  5  5  5  5  5  5  5
CENTRE ASSIGNMENTS    5  5  5  5  5  5  5  5  5  5  5  5  5  5  5  6  6  6  6  6
CENTRE ASSIGNMENTS    6  6  6  6  6  6  6  6  6  6  6  6  6  6  6  6  6  6  6  6
CENTRE ASSIGNMENTS    6  6  6  6  6  6  6  6  6  6  7  7  7  7  7  7  7  7  7  7
CENTRE ASSIGNMENTS    7  7  7  7  7  7  7  7  7  7  7  7  7  7  7  7  7  7  7  7
CENTRE ASSIGNMENTS    7  7  7  7  7  8  8  8  8  8  8  8  8  8  8  8  8  8  8  8
CENTRE ASSIGNMENTS    8  8  8  8  8  8  8  8  8  8  8  8  8  8  8  8  8  8  8  8
CENTRE ASSIGNMENTS    9  9  9  9  9  9  9  9 10 10 10 10 10 10 10 10 11 11 11 11
CENTRE ASSIGNMENTS   11 11 11 11 12 12 12 12 12 12 12 12 13 13 13 13 13 13 13 13
CENTRE ASSIGNMENTS   14 14 14 14 14 14 14 14 15 15 15 15 15 15 15 15 16 16 16 16
CENTRE ASSIGNMENTS   16 16 16 16 17 17 17 17 17 17 17 17 18 18 18 18 18 18 18 18
TYPE ASSIGNMENTS      1  1  1  1  1  1  1  1  1  1  1  2  2  2  2  3  3  3  3  4
TYPE ASSIGNMENTS      4  4  4  2  3  4  2  3  4  5  6  7  8  9 10  1  1  1  1  1
TYPE ASSIGNMENTS      1  1  1  1  1  1  2  2  2  2  3  3  3  3  4  4  4  4  2  3
TYPE ASSIGNMENTS      4  2  3  4  5  6  7  8  9 10  1  1  1  1  1  1  1  1  1  1
TYPE ASSIGNMENTS      1  2  2  2  2  3  3  3  3  4  4  4  4  2  3  4  2  3  4  5
TYPE ASSIGNMENTS      6  7  8  9 10  1  1  1  1  1  1  1  1  1  1  1  2  2  2  2
TYPE ASSIGNMENTS      3  3  3  3  4  4  4  4  2  3  4  2  3  4  5  6  7  8  9 10
TYPE ASSIGNMENTS      1  1  1  1  1  1  1  1  1  1  1  2  2  2  2  3  3  3  3  4
TYPE ASSIGNMENTS      4  4  4  2  3  4  2  3  4  5  6  7  8  9 10  1  1  1  1  1
TYPE ASSIGNMENTS      1  1  1  1  1  1  2  2  2  2  3  3  3  3  4  4  4  4  2  3
TYPE ASSIGNMENTS      4  2  3  4  5  6  7  8  9 10  1  1  1  1  1  1  1  1  1  1
TYPE ASSIGNMENTS      1  2  2  2  2  3  3  3  3  4  4  4  4  2  3  4  2  3  4  5
TYPE ASSIGNMENTS      6  7  8  9 10  1  1  1  1  1  1  1  1  1  1  1  2  2  2  2
TYPE ASSIGNMENTS      3  3  3  3  4  4  4  4  2  3  4  2  3  4  5  6  7  8  9 10
TYPE ASSIGNMENTS      1  1  1  1  1  2  3  4  1  1  1  1  1  2  3  4  1  1  1  1
TYPE ASSIGNMENTS      1  2  3  4  1  1  1  1  1  2  3  4  1  1  1  1  1  2  3  4
TYPE ASSIGNMENTS      1  1  1  1  1  2  3  4  1  1  1  1  1  2  3  4  1  1  1  1
TYPE ASSIGNMENTS      1  2  3  4  1  1  1  1  1  2  3  4  1  1  1  1  1  2  3  4
EXPONENTS  0.1357535D+05 0.2035233D+04 0.4632256D+03 0.1312002D+03 0.4285302D+02
EXPONENTS  0.1558419D+02 0.6206714D+01 0.2576490D+01 0.5769634D+00 0.2297283D+00
EXPONENTS  0.9516444D-01 0.3469723D+02 0.7958262D+01 0.2378083D+01 0.8143321D+00
EXPONENTS  0.3469723D+02 0.7958262D+01 0.2378083D+01 0.8143321D+00 0.3469723D+02
EXPONENTS  0.7958262D+01 0.2378083D+01 0.8143321D+00 0.2888755D+00 0.2888755D+00
EXPONENTS  0.2888755D+00 0.1005682D+00 0.1005682D+00 0.1005682D+00 0.8000000D+00
EXPONENTS  0.8000000D+00 0.8000000D+00 0.8000000D+00 0.8000000D+00 0.8000000D+00
EXPONENTS  0.1357535D+05 0.2035233D+04 0.4632256D+03 0.1312002D+03 0.4285302D+02
EXPONENTS  0.1558419D+02 0.6206714D+01 0.2576490D+01 0.5769634D+00 0.2297283D+00
EXPONENTS  0.9516444D-01 0.3469723D+02 0.7958262D+01 0.2378083D+01 0.8143321D+00
EXPONENTS  0.3469723D+02 0.7958262D+01 0.2378083D+01 0.8143321D+00 0.3469723D+02
EXPONENTS  0.7958262D+01 0.2378083D+01 0.8143321D+00 0.2888755D+00 0.2888755D+00
EXPONENTS  0.2888755D+00 0.1005682D+00 0.1005682D+00 0.1005682D+00 0.8000000D+00
EXPONENTS  0.8000000D+00 0.8000000D+00 0.8000000D+00 0.8000000D+00 0.8000000D+00
EXPONENTS  0.1357535D+05 0.2035233D+04 0.4632256D+03 0.1312002D+03 0.4285302D+02
EXPONENTS  0.1558419D+02 0.6206714D+01 0.2576490D+01 0.5769634D+00 0.2297283D+00
EXPONENTS  0.9516444D-01 0.3469723D+02 0.7958262D+01 0.2378083D+01 0.8143321D+00
EXPONENTS  0.3469723D+02 0.7958262D+01 0.2378083D+01 0.8143321D+00 0.3469723D+02
EXPONENTS  0.7958262D+01 0.2378083D+01 0.8143321D+00 0.2888755D+00 0.2888755D+00
EXPONENTS  0.2888755D+00 0.1005682D+00 0.1005682D+00 0.1005682D+00 0.8000000D+00
EXPONENTS  0.8000000D+00 0.8000000D+00 0.8000000D+00 0.8000000D+00 0.8000000D+00
EXPONENTS  0.1357535D+05 0.2035233D+04 0.4632256D+03 0.1312002D+03 0.4285302D+02
EXPONENTS  0.1558419D+02 0.6206714D+01 0.2576490D+01 0.5769634D+00 0.2297283D+00
EXPONENTS  0.9516444D-01 0.3469723D+02 0.7958262D+01 0.2378083D+01 0.8143321D+00
EXPONENTS  0.3469723D+02 0.7958262D+01 0.2378083D+01 0.8143321D+00 0.3469723D+02
EXPONENTS  0.7958262D+01 0.2378083D+01 0.8143321D+00 0.2888755D+00 0.2888755D+00
EXPONENTS  0.2888755D+00 0.1005682D+00 0.1005682D+00 0.1005682D+00 0.8000000D+00
EXPONENTS  0.8000000D+00 0.8000000D+00 0.8000000D+00 0.8000000D+00 0.8000000D+00
EXPONENTS  0.1357535D+05 0.2035233D+04 0.4632256D+03 0.1312002D+03 0.4285302D+02
EXPONENTS  0.1558419D+02 0.6206714D+01 0.2576490D+01 0.5769634D+00 0.2297283D+00
EXPONENTS  0.9516444D-01 0.3469723D+02 0.7958262D+01 0.2378083D+01 0.8143321D+00
EXPONENTS  0.3469723D+02 0.7958262D+01 0.2378083D+01 0.8143321D+00 0.3469723D+02
EXPONENTS  0.7958262D+01 0.2378083D+01 0.8143321D+00 0.2888755D+00 0.2888755D+00
EXPONENTS  0.2888755D+00 0.1005682D+00 0.1005682D+00 0.1005682D+00 0.8000000D+00
EXPONENTS  0.8000000D+00 0.8000000D+00 0.8000000D+00 0.8000000D+00 0.8000000D+00
EXPONENTS  0.1357535D+05 0.2035233D+04 0.4632256D+03 0.1312002D+03 0.4285302D+02
EXPONENTS  0.1558419D+02 0.6206714D+01 0.2576490D+01 0.5769634D+00 0.2297283D+00
EXPONENTS  0.9516444D-01 0.3469723D+02 0.7958262D+01 0.2378083D+01 0.8143321D+00
EXPONENTS  0.3469723D+02 0.7958262D+01 0.2378083D+01 0.8143321D+00 0.3469723D+02
EXPONENTS  0.7958262D+01 0.2378083D+01 0.8143321D+00 0.2888755D+00 0.2888755D+00
EXPONENTS  0.2888755D+00 0.1005682D+00 0.1005682D+00 0.1005682D+00 0.8000000D+00
EXPONENTS  0.8000000D+00 0.8000000D+00 0.8000000D+00 0.8000000D+00 0.8000000D+00
EXPONENTS  0.1357535D+05 0.2035233D+04 0.4632256D+03 0.1312002D+03 0.4285302D+02
EXPONENTS  0.1558419D+02 0.6206714D+01 0.2576490D+01 0.5769634D+00 0.2297283D+00
EXPONENTS  0.9516444D-01 0.3469723D+02 0.7958262D+01 0.2378083D+01 0.8143321D+00
EXPONENTS  0.3469723D+02 0.7958262D+01 0.2378083D+01 0.8143321D+00 0.3469723D+02
EXPONENTS  0.7958262D+01 0.2378083D+01 0.8143321D+00 0.2888755D+00 0.2888755D+00
EXPONENTS  0.2888755D+00 0.1005682D+00 0.1005682D+00 0.1005682D+00 0.8000000D+00
EXPONENTS  0.8000000D+00 0.8000000D+00 0.8000000D+00 0.8000000D+00 0.8000000D+00
EXPONENTS  0.1357535D+05 0.2035233D+04 0.4632256D+03 0.1312002D+03 0.4285302D+02
EXPONENTS  0.1558419D+02 0.6206714D+01 0.2576490D+01 0.5769634D+00 0.2297283D+00
EXPONENTS  0.9516444D-01 0.3469723D+02 0.7958262D+01 0.2378083D+01 0.8143321D+00
EXPONENTS  0.3469723D+02 0.7958262D+01 0.2378083D+01 0.8143321D+00 0.3469723D+02
EXPONENTS  0.7958262D+01 0.2378083D+01 0.8143321D+00 0.2888755D+00 0.2888755D+00
EXPONENTS  0.2888755D+00 0.1005682D+00 0.1005682D+00 0.1005682D+00 0.8000000D+00
EXPONENTS  0.8000000D+00 0.8000000D+00 0.8000000D+00 0.8000000D+00 0.8000000D+00
EXPONENTS  0.3406134D+02 0.5123575D+01 0.1164663D+01 0.3272304D+00 0.1030724D+00
EXPONENTS  0.8000000D+00 0.8000000D+00 0.8000000D+00 0.3406134D+02 0.5123575D+01
EXPONENTS  0.1164663D+01 0.3272304D+00 0.1030724D+00 0.8000000D+00 0.8000000D+00
EXPONENTS  0.8000000D+00 0.3406134D+02 0.5123575D+01 0.1164663D+01 0.3272304D+00
EXPONENTS  0.1030724D+00 0.8000000D+00 0.8000000D+00 0.8000000D+00 0.3406134D+02
EXPONENTS  0.5123575D+01 0.1164663D+01 0.3272304D+00 0.1030724D+00 0.8000000D+00
EXPONENTS  0.8000000D+00 0.8000000D+00 0.3406134D+02 0.5123575D+01 0.1164663D+01
EXPONENTS  0.3272304D+00 0.1030724D+00 0.8000000D+00 0.8000000D+00 0.8000000D+00
EXPONENTS  0.3406134D+02 0.5123575D+01 0.1164663D+01 0.3272304D+00 0.1030724D+00
EXPONENTS  0.8000000D+00 0.8000000D+00 0.8000000D+00 0.3406134D+02 0.5123575D+01
EXPONENTS  0.1164663D+01 0.3272304D+00 0.1030724D+00 0.8000000D+00 0.8000000D+00
EXPONENTS  0.8000000D+00 0.3406134D+02 0.5123575D+01 0.1164663D+01 0.3272304D+00
EXPONENTS  0.1030724D+00 0.8000000D+00 0.8000000D+00 0.8000000D+00 0.3406134D+02
EXPONENTS  0.5123575D+01 0.1164663D+01 0.3272304D+00 0.1030724D+00 0.8000000D+00
EXPONENTS  0.8000000D+00 0.8000000D+00 0.3406134D+02 0.5123575D+01 0.1164663D+01
EXPONENTS  0.3272304D+00 0.1030724D+00 0.8000000D+00 0.8000000D+00 0.8000000D+00
MO    1     MO 0.0        OCC NO =    2.0000000  ORB. ENERGY =  -10.175946
 -0.17738626D-02 -0.33106919D-02 -0.56504777D-02 -0.87814069D-02 -0.11762075D-01
 -0.12082199D-01 -0.79934701D-02 -0.23686968D-02  0.27501486D-03 -0.11523966D-02
  0.62300603D-03 -0.23629913D-04 -0.25221722D-04 -0.22087628D-04 -0.13948062D-04
  0.65567823D-05  0.69984744D-05  0.61288323D-05  0.38702813D-05  0.33780996D-04
  0.36056624D-04  0.31576167D-04  0.19939957D-04  0.38301326D-03 -0.89122497D-05
 -0.46634563D-04 -0.22542228D-03  0.57548524D-05  0.20396150D-04  0.32195212D-03
 -0.15285921D-03 -0.16909291D-03 -0.54615478D-05 -0.12225679D-04 -0.15385053D-05
 -0.17865420D+00 -0.33343564D+00 -0.56908668D+00 -0.88441756D+00 -0.11846150D+01
 -0.12168562D+01 -0.78810705D+00 -0.23353895D+00 -0.12892223D-01  0.56089036D-02
 -0.67322007D-02  0.67924070D-05  0.72499718D-05  0.63490782D-05  0.40093638D-05
  0.77346503D-05  0.82556885D-05  0.72298228D-05  0.45655431D-05  0.13994091D-04
  0.14936791D-04  0.13080721D-04  0.82603122D-05  0.26369472D-03 -0.34653546D-05
 -0.62092941D-06  0.11560758D-02  0.55835801D-05  0.66011585D-04  0.75978902D-04
  0.18975225D-03 -0.26573115D-03 -0.22284224D-05  0.27081805D-04 -0.78498046D-06
 -0.47238159D-02 -0.88164094D-02 -0.15047285D-01 -0.23384985D-01 -0.31322538D-01
 -0.32175031D-01 -0.21054908D-01 -0.62391791D-02 -0.75323809D-04 -0.88987615D-03
  0.61934530D-02  0.14740292D-03  0.15733259D-03  0.13778218D-03  0.87007731D-04
  0.51673435D-06  0.55154372D-06  0.48300798D-06  0.30501352D-06  0.82660943D-04
  0.88229328D-04  0.77265804D-04  0.48792393D-04 -0.12431266D-03  0.86578607D-07
 -0.16648462D-03 -0.89341925D-03 -0.52425718D-05 -0.80977228D-03 -0.17635880D-03
 -0.13471862D-03  0.31107742D-03 -0.75829189D-06 -0.11124267D-02 -0.48891461D-05
  0.47599465D-02  0.88838427D-02  0.15162376D-01  0.23563847D-01  0.31562112D-01
  0.32421126D-01  0.21217285D-01  0.62872961D-02  0.74107280D-04  0.89654612D-03
 -0.62045721D-02  0.14852586D-03  0.15853118D-03  0.13883183D-03  0.87670573D-04
  0.67869779D-06  0.72441769D-06  0.63440034D-06  0.40061591D-06 -0.78928577D-04
 -0.84245533D-04 -0.73777042D-04 -0.46589284D-04 -0.12834432D-03 -0.77585725D-07
  0.16361935D-03 -0.90795337D-03 -0.36539864D-05  0.79661003D-03  0.19648047D-03
  0.13533130D-03 -0.33181177D-03 -0.79154553D-06 -0.10996423D-02 -0.52731864D-05
  0.17985544D+00  0.33567759D+00  0.57291311D+00  0.89036420D+00  0.11925801D+01
  0.12250381D+01  0.79340750D+00  0.23510963D+00  0.12977338D-01 -0.56455017D-02
  0.67595540D-02  0.60757827D-05  0.64850727D-05  0.56792267D-05  0.35863609D-05
  0.60188521D-05  0.64243070D-05  0.56260119D-05  0.35527564D-05 -0.13915140D-04
 -0.14852521D-04 -0.13006922D-04 -0.82137093D-05  0.26474334D-03 -0.21721198D-05
  0.49584007D-05  0.11615617D-02  0.51099543D-05 -0.45358600D-04 -0.77179428D-04
 -0.19044067D-03  0.26762009D-03  0.20505288D-05  0.14919868D-04  0.26403629D-06
  0.17854501D-02  0.33323185D-02  0.56873887D-02  0.88387703D-02  0.11838910D-01
  0.12161125D-01  0.80455811D-02  0.23841388D-02 -0.27657583D-03  0.11587567D-02
 -0.62408512D-03 -0.23431110D-04 -0.25009527D-04 -0.21901802D-04 -0.13830715D-04
  0.45327302D-05  0.48380737D-05  0.42368866D-05  0.26755411D-05 -0.35234854D-04
 -0.37608420D-04 -0.32935135D-04 -0.20798128D-04  0.38462650D-03 -0.58065310D-05
  0.54857276D-04 -0.22565922D-03  0.38207606D-05 -0.25511492D-04 -0.32364399D-03
  0.15374634D-03  0.16989765D-03  0.29550426D-05 -0.30312951D-04 -0.10591643D-05
  0.47970800D-02  0.89531477D-02  0.15280661D-01  0.23747675D-01  0.31808336D-01
  0.32674051D-01  0.21359322D-01  0.63293860D-02  0.11553966D-03  0.83139734D-03
 -0.60392767D-02  0.12964072D-03  0.13837386D-03  0.12117929D-03  0.76523215D-04
  0.89436533D-06  0.95461349D-06  0.83599162D-06  0.52791830D-06  0.99923508D-04
  0.10665477D-03  0.93401670D-04  0.58981991D-04 -0.11279927D-03 -0.35600978D-06
 -0.16703906D-03 -0.75255474D-03 -0.37832968D-05 -0.81317574D-03  0.17626819D-03
  0.13286963D-03 -0.30913781D-03  0.34057156D-06  0.11078350D-02  0.42702660D-05
 -0.47679088D-02 -0.88987033D-02 -0.15187739D-01 -0.23603264D-01 -0.31614908D-01
 -0.32475358D-01 -0.21228047D-01 -0.62904854D-02 -0.11634299D-03 -0.82612104D-03
  0.60283106D-02  0.13203034D-03  0.14092446D-03  0.12341295D-03  0.77933739D-04
  0.74622561D-06  0.79649447D-06  0.69752073D-06  0.44047566D-06 -0.98630609D-04
 -0.10527478D-03 -0.92193157D-04 -0.58218830D-04 -0.11499723D-03 -0.54105516D-07
  0.16549756D-03 -0.76700336D-03 -0.36694645D-05  0.79724788D-03 -0.19530278D-03
 -0.13203659D-03  0.32733938D-03  0.97177731D-07  0.10846068D-02  0.56885724D-05
  0.26445871D-04  0.47729393D-04  0.70464541D-04  0.86872739D-04  0.48502725D-05
 -0.12108558D-03 -0.16905492D-04 -0.14350444D-03  0.28435637D-04  0.51320514D-04
  0.75766237D-04  0.45408038D-04  0.57928851D-04 -0.11589861D-03 -0.10115410D-03
  0.78884958D-04  0.29052771D-04  0.52434313D-04  0.77410577D-04  0.40752877D-04
  0.70964486D-04 -0.12156714D-03  0.10996635D-03  0.60538874D-04  0.18978868D-04
  0.34252979D-04  0.50568848D-04  0.31815931D-03  0.46132157D-04 -0.17724218D-04
 -0.18887437D-06 -0.38520211D-03 -0.19134238D-04 -0.34533389D-04 -0.50982828D-04
 -0.31969229D-03 -0.46529184D-04 -0.24816439D-04  0.39700890D-06  0.38632770D-03
 -0.26572629D-04 -0.47958165D-04 -0.70802286D-04 -0.88198532D-04 -0.38710156D-05
 -0.12452051D-03 -0.11699569D-04  0.14295846D-03 -0.28665802D-04 -0.51735914D-04
 -0.76379506D-04 -0.45234913D-04 -0.60888563D-04 -0.11600888D-03 -0.10346405D-03
 -0.78734486D-04 -0.29074751D-04 -0.52473983D-04 -0.77469143D-04 -0.42134544D-04
 -0.69985992D-04 -0.12036763D-03  0.10913954D-03 -0.66405916D-04 -0.19453508D-04
 -0.35109607D-04 -0.51833518D-04 -0.29725412D-03 -0.16040474D-04 -0.25134991D-04
 -0.21403692D-06 -0.37559615D-03  0.19330004D-04  0.34886707D-04  0.51504444D-04
  0.29612819D-03  0.15863995D-04 -0.31659473D-04 -0.97789029D-07  0.37378124D-03
MO    2     MO 0.0        OCC NO =    2.0000000  ORB. ENERGY =  -10.175931
 -0.18035964D-02 -0.33661864D-02 -0.57451921D-02 -0.89286026D-02 -0.11959234D-01
 -0.12284723D-01 -0.81061587D-02 -0.24020897D-02  0.22320901D-03 -0.92928191D-03
  0.22349971D-03 -0.55278439D-04 -0.59002224D-04 -0.51670509D-04 -0.32629283D-04
  0.15581538D-04  0.16631175D-04  0.14564558D-04  0.91973369D-05  0.55875407D-04
  0.59639407D-04  0.52228514D-04  0.32981656D-04  0.36752691D-03 -0.15965267D-04
 -0.56174457D-04 -0.10757158D-03  0.23963355D-04  0.10465906D-03  0.30816989D-03
 -0.15132285D-03 -0.15684705D-03 -0.79961210D-05 -0.13767989D-04  0.16204327D-06
 -0.17984475D+00 -0.33565766D+00 -0.57287908D+00 -0.89031132D+00 -0.11925092D+01
 -0.12249653D+01 -0.79355677D+00 -0.23515386D+00 -0.12764819D-01  0.55250088D-02
 -0.41507062D-02 -0.14758247D-03 -0.15752424D-03 -0.13795001D-03 -0.87113715D-04
  0.82205393D-05  0.87743089D-05  0.76839986D-05  0.48523494D-05  0.10070686D-04
  0.10749089D-04  0.94133894D-05  0.59444382D-05  0.16691214D-03 -0.47367375D-05
  0.58294980D-05  0.61776806D-03 -0.12647251D-05 -0.31591437D-04  0.11609692D-03
  0.10050468D-03 -0.21660159D-03 -0.53712689D-05  0.20514958D-04 -0.14839417D-06
 -0.48148310D-02 -0.89862776D-02 -0.15337205D-01 -0.23835550D-01 -0.31926038D-01
 -0.32794957D-01 -0.21669405D-01 -0.64212724D-02  0.17584735D-03 -0.92120484D-03
  0.17111544D-02 -0.59525668D-04 -0.63535564D-04 -0.55640528D-04 -0.35136301D-04
 -0.26318488D-05 -0.28091411D-05 -0.24600725D-05 -0.15535051D-05 -0.16366874D-03
 -0.17469414D-03 -0.15298635D-03 -0.96608978D-04 -0.14317635D-03  0.27849846D-05
  0.94121357D-04  0.75300487D-05 -0.14671842D-05 -0.38838459D-03 -0.62741291D-04
 -0.10980613D-03  0.17254742D-03 -0.21833003D-05 -0.77998962D-03 -0.58255689D-05
 -0.47866208D-02 -0.89336270D-02 -0.15247345D-01 -0.23695897D-01 -0.31738983D-01
 -0.32602811D-01 -0.21543657D-01 -0.63840098D-02  0.17638974D-03 -0.91552521D-03
  0.16738831D-02  0.63018718D-04  0.67263921D-04  0.58905594D-04  0.37198149D-04
  0.22722280D-05  0.24252947D-05  0.21239235D-05  0.13412312D-05 -0.16336257D-03
 -0.17436736D-03 -0.15270018D-03 -0.96428259D-04  0.14142541D-03 -0.24087413D-05
  0.97923788D-04 -0.44764626D-05  0.12181260D-05 -0.38437961D-03 -0.75035306D-04
 -0.10889968D-03  0.18393499D-03 -0.91225566D-06  0.76364495D-03  0.49600423D-05
 -0.17864342D+00 -0.33341551D+00 -0.56905233D+00 -0.88436417D+00 -0.11845435D+01
 -0.12167827D+01 -0.78825729D+00 -0.23358347D+00 -0.12678021D-01  0.54869820D-02
 -0.41042669D-02  0.14761295D-03  0.15755678D-03  0.13797851D-03  0.87131709D-04
 -0.62567665D-05 -0.66782483D-05 -0.58483980D-05 -0.36931905D-05  0.12680342D-04
  0.13534543D-04  0.11852718D-04  0.74848438D-05 -0.16547091D-03  0.34172664D-05
  0.32218380D-05 -0.60978483D-03 -0.41136653D-06 -0.42541257D-04  0.11582672D-03
  0.99195681D-04 -0.21502240D-03 -0.33911791D-05 -0.83675521D-05 -0.42935920D-06
 -0.17910620D-02 -0.33427924D-02 -0.57052649D-02 -0.88665517D-02 -0.11876121D-01
 -0.12199349D-01 -0.80496095D-02 -0.23853325D-02  0.22131926D-03 -0.92121038D-03
  0.21653850D-03  0.54229961D-04  0.57883116D-04  0.50690463D-04  0.32010396D-04
 -0.10968917D-04 -0.11707829D-04 -0.10252994D-04 -0.64746382D-05  0.57965084D-04
  0.61869853D-04  0.54181801D-04  0.34215133D-04 -0.36386524D-03  0.10954135D-04
 -0.63876798D-04  0.10364825D-03 -0.16464880D-04  0.10906333D-03  0.30566122D-03
 -0.15024396D-03 -0.15541726D-03 -0.46969803D-05  0.30516263D-04 -0.23281409D-06
 -0.48504268D-02 -0.90527128D-02 -0.15450593D-01 -0.24011765D-01 -0.32162066D-01
 -0.33037408D-01 -0.21798198D-01 -0.64594375D-02  0.12740751D-03 -0.85891219D-03
  0.16042562D-02  0.68728373D-04  0.73358202D-04  0.64242589D-04  0.40568395D-04
  0.30939314D-05  0.33023514D-05  0.28919957D-05  0.18262593D-05  0.15585440D-03
  0.16635340D-03  0.14568205D-03  0.91996399D-04  0.14875370D-03 -0.32139071D-05
 -0.92730418D-04 -0.45506771D-04  0.23976508D-05  0.35538379D-03 -0.59210388D-04
 -0.10959514D-03  0.16880553D-03 -0.19281461D-05 -0.77197031D-03 -0.42577956D-05
 -0.48851619D-02 -0.91175414D-02 -0.15561238D-01 -0.24183719D-01 -0.32392386D-01
 -0.33273997D-01 -0.21953047D-01 -0.65053237D-02  0.12737266D-03 -0.86654839D-03
  0.16572419D-02 -0.70567345D-04 -0.75321054D-04 -0.65961534D-04 -0.41653887D-04
 -0.32850189D-05 -0.35063114D-05 -0.30706113D-05 -0.19390528D-05  0.15399693D-03
  0.16437080D-03  0.14394581D-03  0.90899985D-04 -0.14752243D-03  0.35481851D-05
 -0.94400888D-04  0.29314286D-04 -0.20277568D-05  0.36197910D-03 -0.74367890D-04
 -0.11023770D-03  0.18460560D-03 -0.20137177D-05  0.77055975D-03  0.60756358D-05
  0.22862264D-04  0.41261714D-04  0.60916084D-04  0.12561900D-03 -0.10604777D-03
 -0.83983538D-04 -0.13044695D-04 -0.15147625D-03  0.16241247D-04  0.29312132D-04
  0.43274507D-04  0.13578328D-03  0.10284772D-03 -0.12560857D-03 -0.11251780D-03
  0.71898319D-04  0.15122343D-04  0.27292738D-04  0.40293206D-04  0.13505679D-03
  0.14612485D-03 -0.14172830D-03  0.11824019D-03  0.46597448D-04  0.24558556D-04
  0.44323175D-04  0.65435825D-04  0.18230318D-03  0.25239876D-04 -0.31079914D-04
 -0.86989044D-06 -0.19555459D-03  0.24389773D-04  0.44018555D-04  0.64986103D-04
  0.18082268D-03  0.26429714D-04  0.34193233D-04 -0.66902040D-07 -0.19276069D-03
  0.22692226D-04  0.40954830D-04  0.60463021D-04  0.12533429D-03 -0.10796006D-03
  0.86061740D-04  0.89243730D-05 -0.14957012D-03  0.15814349D-04  0.28541668D-04
  0.42137044D-04  0.13590014D-03  0.11037848D-03  0.12621516D-03  0.11374740D-03
  0.69349926D-04  0.14931135D-04  0.26947647D-04  0.39783737D-04  0.13573986D-03
  0.14013825D-03  0.13762930D-03 -0.11676521D-03  0.52563869D-04  0.23142001D-04
  0.41766581D-04  0.61661438D-04  0.16291580D-03  0.75702560D-05  0.28570090D-04
  0.33115296D-06  0.19978470D-03  0.23250764D-04  0.41962877D-04  0.61951237D-04
  0.16544851D-03  0.81323583D-05 -0.32023387D-04 -0.12071626D-05  0.20202985D-03
MO    3     MO 0.0        OCC NO =    2.0000000  ORB. ENERGY =  -10.166409
 -0.43483985D-03 -0.81157400D-03 -0.13851427D-02 -0.21526502D-02 -0.28833232D-02
 -0.29617974D-02 -0.19170016D-02 -0.56806312D-03 -0.11504210D-04 -0.19706324D-03
  0.14468727D-02  0.17849129D-03  0.19051521D-03  0.16684147D-03  0.10535831D-03
 -0.27940923D-05 -0.29823140D-05 -0.26117267D-05 -0.16492729D-05 -0.30094882D-04
 -0.32122198D-04 -0.28130640D-04 -0.17764149D-04 -0.30857746D-04  0.84861356D-06
  0.44265025D-04 -0.20387753D-03  0.31071134D-05  0.78419239D-04 -0.46122465D-04
  0.36538394D-04  0.95840714D-05  0.12387402D-07 -0.10963749D-03 -0.21562595D-04
 -0.47428705D-02 -0.88519725D-02 -0.15107982D-01 -0.23479313D-01 -0.31448885D-01
 -0.32304817D-01 -0.20567766D-01 -0.60948250D-02 -0.67895343D-03  0.89847537D-03
 -0.18049556D-02  0.14750205D-03  0.15743840D-03  0.13787484D-03  0.87066248D-04
 -0.42517647D-05 -0.45381812D-05 -0.39742592D-05 -0.25096952D-05 -0.14269837D-03
 -0.15231112D-03 -0.13338468D-03 -0.84230768D-04 -0.11342664D-03  0.48848269D-05
  0.23129550D-03 -0.25225515D-03 -0.74448609D-05 -0.83205551D-03  0.86718452D-04
  0.20113389D-03 -0.28785235D-03 -0.12469567D-05 -0.95257528D-03 -0.26901826D-05
 -0.75094950D-02 -0.14015530D-01 -0.23920812D-01 -0.37175332D-01 -0.49793737D-01
 -0.51148953D-01 -0.32909769D-01 -0.97521178D-02 -0.83746683D-03  0.36189871D-03
  0.14320574D-02  0.31616224D-04  0.33746024D-04  0.29552686D-04  0.18662153D-04
  0.41527089D-05  0.44324526D-05  0.38816686D-05  0.24512254D-05  0.26295099D-03
  0.28066446D-03  0.24578863D-03  0.15521246D-03 -0.71902537D-04 -0.49408895D-05
  0.32325954D-04  0.45921708D-03  0.89966516D-05 -0.36453733D-04  0.89010094D-04
  0.22707521D-04 -0.11171761D-03  0.25581345D-05  0.10442131D-03  0.51168401D-06
 -0.75533332D-02 -0.14097348D-01 -0.24060455D-01 -0.37392351D-01 -0.50084418D-01
 -0.51447545D-01 -0.33102472D-01 -0.98092214D-02 -0.84219226D-03  0.36768799D-03
  0.14188064D-02 -0.36062397D-04 -0.38491710D-04 -0.33708666D-04 -0.21286603D-04
 -0.34084847D-05 -0.36380944D-05 -0.31860187D-05 -0.20119311D-05  0.26201799D-03
  0.27966861D-03  0.24491652D-03  0.15466173D-03  0.70310635D-04  0.44090796D-05
  0.32122570D-04 -0.46319006D-03 -0.85950335D-05 -0.44486153D-04  0.89633355D-04
  0.23136594D-04 -0.11276995D-03  0.19244401D-05 -0.96231365D-04 -0.95174641D-06
 -0.46872500D-02 -0.87481639D-02 -0.14930808D-01 -0.23203967D-01 -0.31080078D-01
 -0.31925973D-01 -0.20324767D-01 -0.60228174D-02 -0.67195402D-03  0.88512581D-03
 -0.17682273D-02 -0.14619637D-03 -0.15604476D-03 -0.13665438D-03 -0.86295539D-04
  0.31021057D-05  0.33110764D-05  0.28996365D-05  0.18310843D-05 -0.14531392D-03
 -0.15510287D-03 -0.13582952D-03 -0.85774653D-04  0.10697256D-03 -0.36590457D-05
  0.23530727D-03  0.27335713D-03  0.59991302D-05 -0.83750658D-03  0.67955469D-04
  0.19954705D-03 -0.26750252D-03 -0.72789732D-06  0.95979728D-03  0.24015972D-05
 -0.42464583D-03 -0.79254814D-03 -0.13526706D-02 -0.21021853D-02 -0.28157290D-02
 -0.28923635D-02 -0.18733231D-02 -0.55511991D-03 -0.96398261D-05 -0.19877238D-03
  0.14538181D-02 -0.17733003D-03 -0.18927572D-03 -0.16575600D-03 -0.10467285D-03
  0.21783335D-05  0.23250751D-05  0.20361574D-05  0.12858080D-05 -0.34885137D-04
 -0.37235145D-04 -0.32608243D-04 -0.20591700D-04  0.29902252D-04 -0.10322839D-05
  0.46254305D-04  0.20320046D-03 -0.18076327D-05  0.81576643D-04 -0.47985191D-04
  0.37308635D-04  0.10676557D-04 -0.23173953D-06  0.10677921D-03  0.14807813D-04
  0.17818930D+00  0.33256795D+00  0.56760577D+00  0.88211607D+00  0.11815323D+01
  0.12136896D+01  0.78640966D+00  0.23303597D+00  0.12278491D-01 -0.40405526D-02
  0.21469964D-04  0.57760537D-04  0.61651527D-04  0.53990605D-04  0.34094395D-04
 -0.22045084D-06 -0.23530133D-06 -0.20606239D-06 -0.13012583D-06  0.13107439D-03
  0.13990411D-03  0.12251939D-03  0.77369469D-04 -0.17450561D-03  0.15475882D-05
 -0.35227395D-03  0.34549018D-03 -0.36942531D-05  0.46429261D-04 -0.42654020D-03
 -0.29765886D-03  0.72419906D-03 -0.43469344D-06  0.37282831D-03  0.31701601D-05
  0.18008041D+00  0.33609748D+00  0.57362973D+00  0.89147791D+00  0.11940718D+01
  0.12265704D+01  0.79475046D+00  0.23550759D+00  0.12413610D-01 -0.41015280D-02
  0.78137087D-04 -0.61908476D-04 -0.66078888D-04 -0.57867815D-04 -0.36542805D-04
  0.18700305D-06  0.19960036D-06  0.17479768D-06  0.11038256D-06  0.13245376D-03
  0.14137639D-03  0.12380873D-03  0.78183668D-04  0.18437261D-03 -0.17984639D-05
 -0.35588470D-03 -0.34146578D-03  0.40458578D-05  0.53890056D-04 -0.41234221D-03
 -0.30422573D-03  0.71656795D-03  0.36548720D-06 -0.41663659D-03 -0.24846184D-05
  0.83897026D-05  0.15141699D-04  0.22354209D-04 -0.63747652D-04 -0.21265025D-03
 -0.42543293D-04  0.91046725D-05  0.19654573D-04  0.29492242D-04  0.53227470D-04
  0.78581541D-04 -0.19743030D-03 -0.12632401D-03  0.11268387D-03  0.39453025D-04
  0.11721465D-04  0.29397114D-04  0.53055783D-04  0.78328074D-04 -0.18308352D-03
 -0.13167149D-03  0.98700483D-04 -0.46716246D-04  0.32781372D-04  0.11065042D-04
  0.19970140D-04  0.29482603D-04 -0.97821787D-04 -0.27880271D-03 -0.60626649D-04
 -0.16261655D-05 -0.77080026D-04  0.11057174D-04  0.19955939D-04  0.29461638D-04
 -0.98070602D-04 -0.27796656D-03  0.61939992D-04  0.22283798D-05 -0.76056324D-04
  0.83951115D-05  0.15151461D-04  0.22368621D-04 -0.64781876D-04 -0.21309456D-03
  0.41654996D-04 -0.60825218D-05  0.22183286D-04  0.29881711D-04  0.53930382D-04
  0.79619274D-04 -0.19771316D-03 -0.12824975D-03 -0.11144931D-03 -0.41501325D-04
  0.12759440D-04  0.29894760D-04  0.53953932D-04  0.79654043D-04 -0.18804930D-03
 -0.13214228D-03 -0.10254577D-03  0.45865344D-04  0.27349622D-04 -0.84569009D-04
 -0.15262978D-03 -0.22533258D-03  0.90053965D-04  0.37567748D-05 -0.61973933D-03
 -0.97154466D-06 -0.95965676D-03 -0.84968507D-04 -0.15335079D-03 -0.22639704D-03
  0.91294148D-04  0.27857882D-05  0.64024609D-03  0.99002616D-06 -0.95812343D-03
MO    4     MO 0.0        OCC NO =    2.0000000  ORB. ENERGY =  -10.165868
  0.94716690D-03  0.17677681D-02  0.30171139D-02  0.46888964D-02  0.62804461D-02
  0.64513786D-02  0.41051605D-02  0.12164780D-02  0.11645338D-03  0.79656909D-04
 -0.55372349D-03 -0.12883097D-03 -0.13750956D-03 -0.12042239D-03 -0.76045240D-04
  0.30307626D-05  0.32349274D-05  0.28329499D-05  0.17889726D-05  0.27854122D-07
  0.29730492D-07  0.26036131D-07  0.16441492D-07  0.14512685D-04 -0.19170619D-05
  0.19379899D-04  0.12644890D-03  0.95853263D-06  0.74373404D-04 -0.33769402D-05
  0.69823673D-04 -0.66446733D-04  0.25689052D-06 -0.87706221D-04 -0.20079907D-04
  0.50379932D-02  0.94027820D-02  0.16048068D-01  0.24940302D-01  0.33405776D-01
  0.34314968D-01  0.21809218D-01  0.64627030D-02  0.76394508D-03 -0.94171563D-03
  0.14530534D-02 -0.14876075D-03 -0.15878190D-03 -0.13905139D-03 -0.87809222D-04
 -0.11358203D-05 -0.12123339D-05 -0.10616872D-05 -0.67044227D-06 -0.10769480D-03
 -0.11494957D-03 -0.10066575D-03 -0.63569165D-04  0.70948084D-04  0.78895715D-06
  0.20953659D-03  0.65042071D-04 -0.10717318D-05 -0.67120366D-03 -0.95930552D-04
 -0.21878871D-03  0.31471926D-03  0.76613409D-06 -0.90715736D-03 -0.12807196D-05
 -0.17790172D+00 -0.33203122D+00 -0.56668971D+00 -0.88069243D+00 -0.11796254D+01
 -0.12117308D+01 -0.78518383D+00 -0.23267272D+00 -0.12157156D-01  0.39314765D-02
 -0.26458153D-03  0.75413139D-04  0.80493281D-04  0.70491052D-04  0.44514221D-04
  0.26633142D-05  0.28427261D-05  0.24894842D-05  0.15720783D-05  0.95713791D-04
  0.10216147D-03  0.89466714D-04  0.56497116D-04 -0.16191516D-03 -0.18747513D-05
 -0.30291616D-03  0.28861881D-03  0.20047254D-05  0.92388197D-04  0.42827553D-03
  0.31909151D-03 -0.74736705D-03  0.48154602D-06 -0.33460719D-03 -0.39814916D-05
 -0.18035176D+00 -0.33660392D+00 -0.57449410D+00 -0.89282122D+00 -0.11958711D+01
 -0.12284186D+01 -0.79598910D+00 -0.23587463D+00 -0.12333291D-01  0.40098217D-02
 -0.33774672D-03 -0.78421701D-04 -0.83704513D-04 -0.73303250D-04 -0.46290089D-04