[Molden Format]
[Title]
 Molden file created by orca_2mkl for BaseName=./PDB

[Atoms] AU
C    1   6          1.8310201056         1.8708928893        -0.2870998612 
C    2   6         -1.0545412470         1.8899312638         0.0396671878 
C    3   6         -1.8793425845         1.9012264858         2.7740447314 
C    4   6         -2.2661594273         4.1642766830         4.0754617643 
C    5   6         -2.9580748271         4.1750421623         6.6107715323 
C    6   6         -3.2918965203         1.9229784465         7.9456066906 
C    7   6         -4.1183675153         1.9342612584        10.6795940857 
C    8   6         -7.0040218418         1.9509197352        11.0035934169 
C    9   6         -2.9048167149        -0.3401453822         6.6442703428 
C   10   6         -2.2129105132        -0.3508764373         4.1090018099 
H   11   1          2.3471067375         1.8621465062        -2.2869204805 
H   12   1          2.6663005531         0.2018678522         0.5949893232 
H   13   1          2.6864345677         3.5344480877         0.5860618702 
H   14   1         -1.8552132400         0.2372405592        -0.9096494727 
H   15   1         -1.8339034064         3.5488683929        -0.9160205901 
H   16   1         -2.0232574493         5.9471879374         3.0914963699 
H   17   1         -3.2414522834         5.9665711334         7.5679619583 
H   18   1         -3.3197278862         3.5878097390        11.6290930852 
H   19   1         -3.3382646382         0.2761420317        11.6361237938 
H   20   1         -7.8402089809         3.6190775736        10.1207405861 
H   21   1         -7.5217321814         1.9594521979        13.0030641148 
H   22   1         -7.8576366041         0.2866477771        10.1300806142 
H   23   1         -3.1459217368        -2.1229994326         7.6287765128 
H   24   1         -1.9295775085        -2.1423066550         3.1516101934 
[GTO]
  1 0
s   6 1.0 
    13575.3496820000         0.5435951735
     2035.2333680000         1.0145521571
      463.2256235900         1.7315729053
      131.2001959800         2.6910372890
       42.8530158900         3.6044547339
       15.5841857700         3.7025557541
s   2 1.0 
        6.2067138500         1.8383540665
        2.5764896500         0.5447575690
s   1 1.0 
        0.5769633900         0.4718145012
s   1 1.0 
        0.2297283100         0.2364944648
s   1 1.0 
        0.0951644400         0.1221141848
p   4 1.0 
       34.6972322400         1.3596662229
        7.9582622800         1.4512589862
        2.3780826900         1.2709231150
        0.8143320800         0.8025721212
p   1 1.0 
        0.2888754700         0.3018758836
p   1 1.0 
        0.1005682400         0.0807265050
d   1 1.0 
        0.8000000000         1.9292013661

  2 0
s   6 1.0 
    13575.3496820000         0.5435951735
     2035.2333680000         1.0145521571
      463.2256235900         1.7315729053
      131.2001959800         2.6910372890
       42.8530158900         3.6044547339
       15.5841857700         3.7025557541
s   2 1.0 
        6.2067138500         1.8383540665
        2.5764896500         0.5447575690
s   1 1.0 
        0.5769633900         0.4718145012
s   1 1.0 
        0.2297283100         0.2364944648
s   1 1.0 
        0.0951644400         0.1221141848
p   4 1.0 
       34.6972322400         1.3596662229
        7.9582622800         1.4512589862
        2.3780826900         1.2709231150
        0.8143320800         0.8025721212
p   1 1.0 
        0.2888754700         0.3018758836
p   1 1.0 
        0.1005682400         0.0807265050
d   1 1.0 
        0.8000000000         1.9292013661

  3 0
s   6 1.0 
    13575.3496820000         0.5435951735
     2035.2333680000         1.0145521571
      463.2256235900         1.7315729053
      131.2001959800         2.6910372890
       42.8530158900         3.6044547339
       15.5841857700         3.7025557541
s   2 1.0 
        6.2067138500         1.8383540665
        2.5764896500         0.5447575690
s   1 1.0 
        0.5769633900         0.4718145012
s   1 1.0 
        0.2297283100         0.2364944648
s   1 1.0 
        0.0951644400         0.1221141848
p   4 1.0 
       34.6972322400         1.3596662229
        7.9582622800         1.4512589862
        2.3780826900         1.2709231150
        0.8143320800         0.8025721212
p   1 1.0 
        0.2888754700         0.3018758836
p   1 1.0 
        0.1005682400         0.0807265050
d   1 1.0 
        0.8000000000         1.9292013661

  4 0
s   6 1.0 
    13575.3496820000         0.5435951735
     2035.2333680000         1.0145521571
      463.2256235900         1.7315729053
      131.2001959800         2.6910372890
       42.8530158900         3.6044547339
       15.5841857700         3.7025557541
s   2 1.0 
        6.2067138500         1.8383540665
        2.5764896500         0.5447575690
s   1 1.0 
        0.5769633900         0.4718145012
s   1 1.0 
        0.2297283100         0.2364944648
s   1 1.0 
        0.0951644400         0.1221141848
p   4 1.0 
       34.6972322400         1.3596662229
        7.9582622800         1.4512589862
        2.3780826900         1.2709231150
        0.8143320800         0.8025721212
p   1 1.0 
        0.2888754700         0.3018758836
p   1 1.0 
        0.1005682400         0.0807265050
d   1 1.0 
        0.8000000000         1.9292013661

  5 0
s   6 1.0 
    13575.3496820000         0.5435951735
     2035.2333680000         1.0145521571
      463.2256235900         1.7315729053
      131.2001959800         2.6910372890
       42.8530158900         3.6044547339
       15.5841857700         3.7025557541
s   2 1.0 
        6.2067138500         1.8383540665
        2.5764896500         0.5447575690
s   1 1.0 
        0.5769633900         0.4718145012
s   1 1.0 
        0.2297283100         0.2364944648
s   1 1.0 
        0.0951644400         0.1221141848
p   4 1.0 
       34.6972322400         1.3596662229
        7.9582622800         1.4512589862
        2.3780826900         1.2709231150
        0.8143320800         0.8025721212
p   1 1.0 
        0.2888754700         0.3018758836
p   1 1.0 
        0.1005682400         0.0807265050
d   1 1.0 
        0.8000000000         1.9292013661

  6 0
s   6 1.0 
    13575.3496820000         0.5435951735
     2035.2333680000         1.0145521571
      463.2256235900         1.7315729053
      131.2001959800         2.6910372890
       42.8530158900         3.6044547339
       15.5841857700         3.7025557541
s   2 1.0 
        6.2067138500         1.8383540665
        2.5764896500         0.5447575690
s   1 1.0 
        0.5769633900         0.4718145012
s   1 1.0 
        0.2297283100         0.2364944648
s   1 1.0 
        0.0951644400         0.1221141848
p   4 1.0 
       34.6972322400         1.3596662229
        7.9582622800         1.4512589862
        2.3780826900         1.2709231150
        0.8143320800         0.8025721212
p   1 1.0 
        0.2888754700         0.3018758836
p   1 1.0 
        0.1005682400         0.0807265050
d   1 1.0 
        0.8000000000         1.9292013661

  7 0
s   6 1.0 
    13575.3496820000         0.5435951735
     2035.2333680000         1.0145521571
      463.2256235900         1.7315729053
      131.2001959800         2.6910372890
       42.8530158900         3.6044547339
       15.5841857700         3.7025557541
s   2 1.0 
        6.2067138500         1.8383540665
        2.5764896500         0.5447575690
s   1 1.0 
        0.5769633900         0.4718145012
s   1 1.0 
        0.2297283100         0.2364944648
s   1 1.0 
        0.0951644400         0.1221141848
p   4 1.0 
       34.6972322400         1.3596662229
        7.9582622800         1.4512589862
        2.3780826900         1.2709231150
        0.8143320800         0.8025721212
p   1 1.0 
        0.2888754700         0.3018758836
p   1 1.0 
        0.1005682400         0.0807265050
d   1 1.0 
        0.8000000000         1.9292013661

  8 0
s   6 1.0 
    13575.3496820000         0.5435951735
     2035.2333680000         1.0145521571
      463.2256235900         1.7315729053
      131.2001959800         2.6910372890
       42.8530158900         3.6044547339
       15.5841857700         3.7025557541
s   2 1.0 
        6.2067138500         1.8383540665
        2.5764896500         0.5447575690
s   1 1.0 
        0.5769633900         0.4718145012
s   1 1.0 
        0.2297283100         0.2364944648
s   1 1.0 
        0.0951644400         0.1221141848
p   4 1.0 
       34.6972322400         1.3596662229
        7.9582622800         1.4512589862
        2.3780826900         1.2709231150
        0.8143320800         0.8025721212
p   1 1.0 
        0.2888754700         0.3018758836
p   1 1.0 
        0.1005682400         0.0807265050
d   1 1.0 
        0.8000000000         1.9292013661

  9 0
s   6 1.0 
    13575.3496820000         0.5435951735
     2035.2333680000         1.0145521571
      463.2256235900         1.7315729053
      131.2001959800         2.6910372890
       42.8530158900         3.6044547339
       15.5841857700         3.7025557541
s   2 1.0 
        6.2067138500         1.8383540665
        2.5764896500         0.5447575690
s   1 1.0 
        0.5769633900         0.4718145012
s   1 1.0 
        0.2297283100         0.2364944648
s   1 1.0 
        0.0951644400         0.1221141848
p   4 1.0 
       34.6972322400         1.3596662229
        7.9582622800         1.4512589862
        2.3780826900         1.2709231150
        0.8143320800         0.8025721212
p   1 1.0 
        0.2888754700         0.3018758836
p   1 1.0 
        0.1005682400         0.0807265050
d   1 1.0 
        0.8000000000         1.9292013661

 10 0
s   6 1.0 
    13575.3496820000         0.5435951735
     2035.2333680000         1.0145521571
      463.2256235900         1.7315729053
      131.2001959800         2.6910372890
       42.8530158900         3.6044547339
       15.5841857700         3.7025557541
s   2 1.0 
        6.2067138500         1.8383540665
        2.5764896500         0.5447575690
s   1 1.0 
        0.5769633900         0.4718145012
s   1 1.0 
        0.2297283100         0.2364944648
s   1 1.0 
        0.0951644400         0.1221141848
p   4 1.0 
       34.6972322400         1.3596662229
        7.9582622800         1.4512589862
        2.3780826900         1.2709231150
        0.8143320800         0.8025721212
p   1 1.0 
        0.2888754700         0.3018758836
p   1 1.0 
        0.1005682400         0.0807265050
d   1 1.0 
        0.8000000000         1.9292013661

 11 0
s   3 1.0 
       34.0613410000         0.2556300129
        5.1235746000         0.4613599287
        1.1646626000         0.6811215012
s   1 1.0 
        0.3272304100         0.3083545312
s   1 1.0 
        0.1030724100         0.1296483265
p   1 1.0 
        0.8000000000         1.0784563492

 12 0
s   3 1.0 
       34.0613410000         0.2556300129
        5.1235746000         0.4613599287
        1.1646626000         0.6811215012
s   1 1.0 
        0.3272304100         0.3083545312
s   1 1.0 
        0.1030724100         0.1296483265
p   1 1.0 
        0.8000000000         1.0784563492

 13 0
s   3 1.0 
       34.0613410000         0.2556300129
        5.1235746000         0.4613599287
        1.1646626000         0.6811215012
s   1 1.0 
        0.3272304100         0.3083545312
s   1 1.0 
        0.1030724100         0.1296483265
p   1 1.0 
        0.8000000000         1.0784563492

 14 0
s   3 1.0 
       34.0613410000         0.2556300129
        5.1235746000         0.4613599287
        1.1646626000         0.6811215012
s   1 1.0 
        0.3272304100         0.3083545312
s   1 1.0 
        0.1030724100         0.1296483265
p   1 1.0 
        0.8000000000         1.0784563492

 15 0
s   3 1.0 
       34.0613410000         0.2556300129
        5.1235746000         0.4613599287
        1.1646626000         0.6811215012
s   1 1.0 
        0.3272304100         0.3083545312
s   1 1.0 
        0.1030724100         0.1296483265
p   1 1.0 
        0.8000000000         1.0784563492

 16 0
s   3 1.0 
       34.0613410000         0.2556300129
        5.1235746000         0.4613599287
        1.1646626000         0.6811215012
s   1 1.0 
        0.3272304100         0.3083545312
s   1 1.0 
        0.1030724100         0.1296483265
p   1 1.0 
        0.8000000000         1.0784563492

 17 0
s   3 1.0 
       34.0613410000         0.2556300129
        5.1235746000         0.4613599287
        1.1646626000         0.6811215012
s   1 1.0 
        0.3272304100         0.3083545312
s   1 1.0 
        0.1030724100         0.1296483265
p   1 1.0 
        0.8000000000         1.0784563492

 18 0
s   3 1.0 
       34.0613410000         0.2556300129
        5.1235746000         0.4613599287
        1.1646626000         0.6811215012
s   1 1.0 
        0.3272304100         0.3083545312
s   1 1.0 
        0.1030724100         0.1296483265
p   1 1.0 
        0.8000000000         1.0784563492

 19 0
s   3 1.0 
       34.0613410000         0.2556300129
        5.1235746000         0.4613599287
        1.1646626000         0.6811215012
s   1 1.0 
        0.3272304100         0.3083545312
s   1 1.0 
        0.1030724100         0.1296483265
p   1 1.0 
        0.8000000000         1.0784563492

 20 0
s   3 1.0 
       34.0613410000         0.2556300129
        5.1235746000         0.4613599287
        1.1646626000         0.6811215012
s   1 1.0 
        0.3272304100         0.3083545312
s   1 1.0 
        0.1030724100         0.1296483265
p   1 1.0 
        0.8000000000         1.0784563492

 21 0
s   3 1.0 
       34.0613410000         0.2556300129
        5.1235746000         0.4613599287
        1.1646626000         0.6811215012
s   1 1.0 
        0.3272304100         0.3083545312
s   1 1.0 
        0.1030724100         0.1296483265
p   1 1.0 
        0.8000000000         1.0784563492

 22 0
s   3 1.0 
       34.0613410000         0.2556300129
        5.1235746000         0.4613599287
        1.1646626000         0.6811215012
s   1 1.0 
        0.3272304100         0.3083545312
s   1 1.0 
        0.1030724100         0.1296483265
p   1 1.0 
        0.8000000000         1.0784563492

 23 0
s   3 1.0 
       34.0613410000         0.2556300129
        5.1235746000         0.4613599287
        1.1646626000         0.6811215012
s   1 1.0 
        0.3272304100         0.3083545312
s   1 1.0 
        0.1030724100         0.1296483265
p   1 1.0 
        0.8000000000         1.0784563492

 24 0
s   3 1.0 
       34.0613410000         0.2556300129
        5.1235746000         0.4613599287
        1.1646626000         0.6811215012
s   1 1.0 
        0.3272304100         0.3083545312
s   1 1.0 
        0.1030724100         0.1296483265
p   1 1.0 
        0.8000000000         1.0784563492

[5D]
[7F]
[9G]
[MO]
 Sym=     1a
 Ene= -1.01735838066267E+01
 Spin= Alpha
 Occup= 2.000000
  1      -0.000059462277
  2      -0.000038976576
  3      -0.000275277138
  4       0.001329556812
  5      -0.008996234018
  6       0.000012141568
  7       0.000000778777
  8      -0.000029843122
  9       0.000132344164
 10      -0.000002875616
 11       0.000088597513
 12       0.002255732086
 13      -0.000020834903
 14      -0.002085267692
 15       0.000006619374
 16       0.000057306229
 17      -0.000000294517
 18      -0.000044641590
 19       0.000001118871
 20       0.006960741330
 21       0.009116456088
 22       0.000244586447
 23       0.001756507916
 24       0.001023525000
 25       0.000001475175
 26      -0.000000517567
 27       0.000050595091
 28      -0.000469938078
 29       0.000004777771
 30       0.000529554330
 31       0.003861780339
 32      -0.000016885124
 33      -0.001580422103
 34      -0.000150855515
 35       0.000101622391
 36      -0.000001024081
 37      -0.000060685441
 38       0.000000688524
 39       0.236431717735
 40       0.308336213131
 41       0.020285873758
 42      -0.019363163449
 43       0.063088265137
 44       0.000038259788
 45       0.000000494768
 46       0.000062341932
 47      -0.000378272872
 48      -0.000001233878
 49       0.000489500676
 50      -0.003081203111
 51       0.000033885727
 52       0.013107706000
 53      -0.000036572316
 54      -0.000039729847
 55      -0.000002828123
 56      -0.000148660111
 57      -0.000004757749
 58       0.008412851258
 59       0.011022246149
 60       0.000373254864
 61       0.003275981370
 62      -0.048055099492
 63      -0.000010692534
 64      -0.000067101131
 65       0.000103942892
 66       0.000016965115
 67       0.000215583034
 68      -0.000196716787
 69       0.001359739685
 70       0.013983150885
 71      -0.006049767491
 72       0.000165844806
 73      -0.000016080401
 74      -0.000423284533
 75       0.000165927762
 76       0.000131378601
 77      -0.014572090394
 78      -0.019160501848
 79      -0.000423963894
 80      -0.004949171605
 81       0.056357946661
 82       0.000020912176
 83       0.000001041616
 84       0.000057368357
 85      -0.000000734962
 86       0.000052169445
 87      -0.000373484863
 88       0.001205676272
 89      -0.016747965227
 90      -0.005006990306
 91      -0.000173724942
 92       0.000017912376
 93      -0.000614927416
 94      -0.000237884628
 95       0.000166882047
 96      -0.401442289388
 97      -0.523593956927
 98      -0.034160070097
 99       0.032450590654
100      -0.084628988785
101       0.000109682410
102       0.000000584825
103       0.000019106046
104      -0.000717182757
105      -0.000004573377
106       0.000759124852
107      -0.003087802877
108       0.000076053200
109       0.016302361766
110       0.000077109672
111       0.000047794106
112       0.000004802856
113       0.000224058782
114       0.000007218677
115      -0.011909065915
116      -0.015585933855
117      -0.000495101249
118      -0.002456497321
119      -0.003822476161
120       0.000006528207
121      -0.000001605728
122       0.000082967449
123      -0.000838049837
124       0.000011960375
125       0.000838315739
126       0.006204359466
127      -0.000095833082
128      -0.001852022469
129       0.000243482051
130      -0.000170588729
131       0.000001438552
132       0.000104511948
133      -0.000001327967
134       0.000095894310
135       0.000062440972
136       0.000452526534
137      -0.002201648673
138       0.015583105867
139       0.000009491467
140       0.000000529591
141      -0.000056438696
142       0.000291905929
143       0.000000069721
144       0.000209846973
145       0.003828419982
146      -0.000009595313
147      -0.003651322374
148      -0.000004301249
149      -0.000104821942
150       0.000000226109
151       0.000078321993
152      -0.000001610511
153      -0.014598638257
154      -0.019196921741
155      -0.000407842994
156      -0.005020112105
157       0.056598229401
158       0.000017635179
159       0.000000742172
160       0.000058057414
161       0.000019957685
162      -0.000061657604
163      -0.000377158206
164       0.000754817744
165       0.016756147026
166      -0.005373309909
167      -0.000190627523
168       0.000005198880
169       0.000606463932
170      -0.000237817450
171      -0.000177994024
172       0.008400684688
173       0.011005518084
174       0.000378921737
175       0.003257977992
176      -0.048261439584
177      -0.000009567773
178       0.000068241761
179       0.000102552337
180       0.000005542258
181      -0.000219406695
182      -0.000189911587
183       0.001786195731
184      -0.014092372846
185      -0.005905225886
186       0.000154551865
187      -0.000024745401
188       0.000430068183
189       0.000165611725
190      -0.000123777837
191      -0.000028960517
192       0.000124192795
193      -0.000520262829
194      -0.000010789350
195       0.000000729283
196       0.000002525037
197      -0.000039172769
198       0.000233715253
199       0.001205426984
200       0.000052094766
201      -0.000030183937
202       0.000005641212
203      -0.000037518534
204       0.000232128755
205       0.001187877275
206       0.000054845751
207       0.000031264343
208       0.000001825697
209      -0.000054666019
210      -0.000325719792
211       0.000182032757
212      -0.000061013504
213      -0.000071156125
214      -0.000093516385
215      -0.000055205623
216      -0.000327321088
217       0.000192324560
218      -0.000062568132
219       0.000070165836
220      -0.000090669678
221      -0.000023958339
222      -0.000830663961
223      -0.001411369981
224       0.000010652103
225       0.000268649025
226      -0.000037999312
227       0.000061748028
228       0.001010889452
229       0.001510541984
230       0.000028421461
231      -0.000356242109
232      -0.000035301093
233       0.000061478953
234       0.000759095299
235      -0.000202019065
236      -0.000097050024
237      -0.000140877432
238      -0.000161819508
239       0.000064120031
240       0.000751131476
241      -0.000288672399
242      -0.000097604890
243       0.000139978483
244      -0.000157356746
245       0.000060308051
246      -0.000342239342
247      -0.002157891258
248       0.000104056534
249      -0.000057710845
250       0.000013722262
251       0.000050961910
252      -0.000255515278
253       0.000849978254
254      -0.000034530923
255       0.000000336493
256       0.000014867952
257       0.000058733378
258      -0.000339705349
259      -0.002097204114
260       0.000108985323
261       0.000060055380
262       0.000009244982
263       0.000062848458
264       0.001016425726
265       0.001520075838
266       0.000022756322
267       0.000356657667
268      -0.000042127072
269      -0.000022035330
270      -0.000837549718
271      -0.001441936356
272       0.000013896320
273      -0.000269835003
274      -0.000033047839
 Sym=     1a
 Ene= -1.01735692073897E+01
 Spin= Alpha
 Occup= 2.000000
  1      -0.000090369707
  2      -0.000058445576
  3      -0.000435360826
  4       0.002138505656
  5      -0.015892431159
  6      -0.000002608082
  7      -0.000000260233
  8      -0.000062415078
  9       0.000363703516
 10       0.000005279815
 11       0.000270989954
 12       0.003820769715
 13       0.000015088941
 14      -0.003769509495
 15      -0.000003073645
 16       0.000113051773
 17      -0.000000047300
 18      -0.000080928118
 19       0.000001582937
 20       0.012031057227
 21       0.015733640478
 22       0.000582064679
 23       0.001895731062
 24       0.005986153319
 25       0.000010833894
 26      -0.000002584224
 27       0.000079772347
 28      -0.000878366048
 29       0.000017388319
 30       0.000774654693
 31       0.005837688861
 32      -0.000185930985
 33      -0.000993707941
 34      -0.000230654877
 35       0.000168142025
 36      -0.000001097260
 37      -0.000105663604
 38       0.000001727404
 39       0.401404757821
 40       0.523612737633
 41       0.033853937333
 42      -0.031987552939
 43       0.060683147898
 44       0.000156248172
 45       0.000000314210
 46      -0.000073838491
 47      -0.000792941702
 48      -0.000007052593
 49       0.000685049911
 50      -0.000808643520
 51       0.000101359901
 52       0.009915207882
 53      -0.000092822465
 54      -0.000026916558
 55      -0.000004641685
 56      -0.000193807318
 57      -0.000006600149
 58       0.014943710020
 59       0.019723858589
 60       0.000167085812
 61       0.004447179737
 62      -0.030025275729
 63       0.000055373485
 64       0.000122687463
 65      -0.000067544988
 66       0.000012445780
 67      -0.000516714277
 68      -0.000422613907
 69      -0.000890040143
 70       0.009306692595
 71      -0.000157445055
 72       0.000093961092
 73       0.000017991128
 74      -0.000486959541
 75       0.000191416310
 76       0.000130617002
 77       0.008972817888
 78       0.011881195758
 79      -0.000015397004
 80       0.002203211576
 81      -0.002102368474
 82      -0.000057122584
 83       0.000138869503
 84       0.000107994653
 85       0.000011526599
 86      -0.000547285349
 87       0.000282570345
 88       0.001504472552
 89       0.001138816748
 90      -0.003154989444
 91      -0.000005412388
 92       0.000018727363
 93       0.000221935237
 94       0.000087461997
 95      -0.000045590745
 96       0.236370591100
 97       0.308371239264
 98       0.019768032496
 99      -0.018585499650
100       0.022520297869
101      -0.000118256603
102      -0.000000093355
103       0.000094660963
104       0.000510582253
105       0.000005874832
106      -0.000361558460
107      -0.000779380955
108      -0.000073787067
109      -0.002344393631
110      -0.000063458597
111      -0.000004267419
112      -0.000002744151
113      -0.000097439874
114      -0.000003392825
115       0.007138118898
116       0.009328334588
117       0.000389746618
118       0.000806281090
119       0.004761143412
120      -0.000008786495
121       0.000001941121
122      -0.000045201840
123       0.000540877014
124      -0.000012364678
125      -0.000420709301
126      -0.003233514912
127       0.000150111023
128       0.000094142545
129      -0.000128307749
130       0.000097725077
131      -0.000000469054
132      -0.000063020249
133       0.000001095471
134      -0.000050328950
135      -0.000032333019
136      -0.000247703743
137       0.001226691190
138      -0.009546588860
139       0.000008131719
140       0.000000618902
141       0.000040164498
142      -0.000253989047
143      -0.000006218191
144      -0.000194675361
145      -0.002250499396
146      -0.000024290821
147       0.002283663632
148      -0.000005867745
149       0.000071021938
150       0.000000162913
151      -0.000049171123
152       0.000000778214
153       0.008986949388
154       0.011901235068
155      -0.000034422908
156       0.002298408584
157      -0.003000913933
158      -0.000053694147
159      -0.000139744823
160       0.000109441139
161      -0.000002481250
162       0.000555718957
163       0.000275287486
164       0.001434845499
165      -0.001376745526
166      -0.002789601914
167       0.000001611941
168       0.000023604048
169      -0.000220556851
170       0.000086805986
171       0.000050517790
172       0.014928064817
173       0.019701041935
174       0.000193082739
175       0.004326862651
176      -0.029115926502
177       0.000060073618
178      -0.000120987607
179      -0.000066723691
180      -0.000010841477
181       0.000504882568
182      -0.000427314556
183      -0.000730272479
184      -0.009095162434
185       0.000341091363
186       0.000079627152
187       0.000007622449
188       0.000492291939
189       0.000191879332
190      -0.000120665515
191      -0.000052735395
192       0.000301750057
193      -0.000813761752
194      -0.000051466563
195      -0.000000697553
196       0.000025730534
197      -0.000053889820
198       0.000285276161
199       0.002274092259
200       0.000120092083
201      -0.000064324173
202       0.000018186275
203      -0.000053420629
204       0.000282320436
205       0.002174032100
206       0.000125919083
207       0.000067288818
208       0.000015589591
209      -0.000028238354
210      -0.000977184056
211       0.000085387414
212      -0.000090571914
213      -0.000161804029
214      -0.000164948836
215      -0.000033053086
216      -0.000956267962
217       0.000256659457
218      -0.000088495225
219       0.000162096053
220      -0.000160372709
221      -0.000086796603
222      -0.000595279799
223      -0.000572968543
224       0.000028625101
225       0.000250639958
226      -0.000017901705
227      -0.000066060939
228      -0.000094803030
229       0.000251502601
230      -0.000022292770
231       0.000085652004
232      -0.000004243833
233       0.000001828456
234      -0.000696755081
235      -0.000012491379
236       0.000049509734
237       0.000107011142
238       0.000098882596
239      -0.000002034537
240      -0.000678009160
241       0.000129670936
242       0.000047081743
243      -0.000107604498
244       0.000096424771
245      -0.000028120186
246       0.000135928977
247       0.001404870813
248      -0.000079887484
249       0.000041673529
250      -0.000013151704
251      -0.000032147290
252       0.000204226069
253      -0.000457924271
254       0.000039883047
255       0.000000976555
256      -0.000021371621
257      -0.000028491587
258       0.000133881325
259       0.001327671855
260      -0.000083503946
261      -0.000043836643
262      -0.000012792867
263      -0.000064205200
264      -0.000118726951
265       0.000178589210
266      -0.000019774429
267      -0.000089005138
268      -0.000002601001
269      -0.000087807965
270      -0.000572011269
271      -0.000506790510
272       0.000033143435
273      -0.000247615335
274      -0.000013374765
 Sym=     1a
 Ene= -1.01695075303300E+01
 Spin= Alpha
 Occup= 2.000000
  1       0.001151639425
  2       0.001503560617
  3      -0.000037269851
  4       0.001174364234
  5      -0.006095189865
  6      -0.000047428020
  7      -0.000000599584
  8       0.000013344152
  9      -0.000286303897
 10       0.000007379011
 11       0.000047502888
 12       0.002149693314
 13      -0.000024676569
 14      -0.000425761139
 15       0.000027064485
 16      -0.000011080022
 17       0.000000214163
 18      -0.000060558990
 19       0.000000794789
 20       0.122034560434
 21       0.159069724978
 22       0.010843416838
 23      -0.011916427398
 24       0.007851519912
 25       0.000018711137
 26      -0.000000760472
 27       0.000121467821
 28      -0.000304182257
 29      -0.000001689747
 30      -0.001153376193
 31       0.002628045271
 32      -0.000046475853
 33      -0.000449638480
 34      -0.000061473318
 35       0.000109883554
 36      -0.000000452753
 37      -0.000140033071
 38       0.000002532288
 39      -0.003522624683
 40      -0.004563307455
 41      -0.000687204697
 42       0.002813270186
 43      -0.051460327939
 44       0.000026954967
 45      -0.000000502115
 46      -0.000050404331
 47       0.000077837900
 48       0.000000363427
 49      -0.000281677326
 50       0.006321911291
 51      -0.000019515933