 Generated by Multiwfn
GAUSSIAN             25 MOL ORBITALS    322 PRIMITIVES       20 NUCLEI
  C    1    (CENTRE  1)   1.96477774  1.89050176 -0.04991939  CHARGE =  6.0
  C    2    (CENTRE  2)  -0.92552534  1.88851872 -0.01445321  CHARGE =  6.0
  C    3    (CENTRE  3)  -2.03751673  1.88928671  2.65711954  CHARGE =  6.0
  C    4    (CENTRE  4)  -4.92933422  1.88639417  2.71347460  CHARGE =  6.0
  C    5    (CENTRE  5)  -6.04132276  1.88838388  5.38504633  CHARGE =  6.0
  C    6    (CENTRE  6)  -8.93162544  1.88424218  5.42051759  CHARGE =  6.0
  H    7    (CENTRE  7)   2.69701069  1.89048052 -1.98028454  CHARGE =  1.0
  H    8    (CENTRE  8)   2.72342151  0.22455602  0.90915284  CHARGE =  1.0
  H    9    (CENTRE  9)   2.72111822  3.55802671  0.90823138  CHARGE =  1.0
  H   10    (CENTRE 10)  -1.62690871  0.23311632 -1.04178715  CHARGE =  1.0
  H   11    (CENTRE 11)  -1.62922083  3.54175351 -1.04368831  CHARGE =  1.0
  H   12    (CENTRE 12)  -1.33525009  3.54632863  3.68539033  CHARGE =  1.0
  H   13    (CENTRE 13)  -1.33190440  0.23513791  3.68775081  CHARGE =  1.0
  H   14    (CENTRE 14)  -5.63154271  0.22884531  1.68598275  CHARGE =  1.0
  H   15    (CENTRE 15)  -5.63501460  3.54004047  1.68208358  CHARGE =  1.0
  H   16    (CENTRE 16)  -5.34121923  3.54513949  6.41107006  CHARGE =  1.0
  H   17    (CENTRE 17)  -5.33637194  0.23650456  6.41559990  CHARGE =  1.0
  H   18    (CENTRE 18)  -9.69154127  3.54839760  4.45934341  CHARGE =  1.0
  H   19    (CENTRE 19)  -9.66387468  1.88615941  7.35087873  CHARGE =  1.0
  H   20    (CENTRE 20)  -9.68668858  0.21491428  4.46450749  CHARGE =  1.0
CENTRE ASSIGNMENTS    1  1  1  1  1  1  1  1  1  1  1  1  1  1  1  1  1  1  1  1
CENTRE ASSIGNMENTS    1  1  1  1  1  1  1  1  1  1  1  1  1  1  1  2  2  2  2  2
CENTRE ASSIGNMENTS    2  2  2  2  2  2  2  2  2  2  2  2  2  2  2  2  2  2  2  2
CENTRE ASSIGNMENTS    2  2  2  2  2  2  2  2  2  2  3  3  3  3  3  3  3  3  3  3
CENTRE ASSIGNMENTS    3  3  3  3  3  3  3  3  3  3  3  3  3  3  3  3  3  3  3  3
CENTRE ASSIGNMENTS    3  3  3  3  3  4  4  4  4  4  4  4  4  4  4  4  4  4  4  4
CENTRE ASSIGNMENTS    4  4  4  4  4  4  4  4  4  4  4  4  4  4  4  4  4  4  4  4
CENTRE ASSIGNMENTS    5  5  5  5  5  5  5  5  5  5  5  5  5  5  5  5  5  5  5  5
CENTRE ASSIGNMENTS    5  5  5  5  5  5  5  5  5  5  5  5  5  5  5  6  6  6  6  6
CENTRE ASSIGNMENTS    6  6  6  6  6  6  6  6  6  6  6  6  6  6  6  6  6  6  6  6
CENTRE ASSIGNMENTS    6  6  6  6  6  6  6  6  6  6  7  7  7  7  7  7  7  7  8  8
CENTRE ASSIGNMENTS    8  8  8  8  8  8  9  9  9  9  9  9  9  9 10 10 10 10 10 10
CENTRE ASSIGNMENTS   10 10 11 11 11 11 11 11 11 11 12 12 12 12 12 12 12 12 13 13
CENTRE ASSIGNMENTS   13 13 13 13 13 13 14 14 14 14 14 14 14 14 15 15 15 15 15 15
CENTRE ASSIGNMENTS   15 15 16 16 16 16 16 16 16 16 17 17 17 17 17 17 17 17 18 18
CENTRE ASSIGNMENTS   18 18 18 18 18 18 19 19 19 19 19 19 19 19 20 20 20 20 20 20
CENTRE ASSIGNMENTS   20 20
TYPE ASSIGNMENTS      1  1  1  1  1  1  1  1  1  1  1  2  2  2  2  3  3  3  3  4
TYPE ASSIGNMENTS      4  4  4  2  3  4  2  3  4  5  6  7  8  9 10  1  1  1  1  1
TYPE ASSIGNMENTS      1  1  1  1  1  1  2  2  2  2  3  3  3  3  4  4  4  4  2  3
TYPE ASSIGNMENTS      4  2  3  4  5  6  7  8  9 10  1  1  1  1  1  1  1  1  1  1
TYPE ASSIGNMENTS      1  2  2  2  2  3  3  3  3  4  4  4  4  2  3  4  2  3  4  5
TYPE ASSIGNMENTS      6  7  8  9 10  1  1  1  1  1  1  1  1  1  1  1  2  2  2  2
TYPE ASSIGNMENTS      3  3  3  3  4  4  4  4  2  3  4  2  3  4  5  6  7  8  9 10
TYPE ASSIGNMENTS      1  1  1  1  1  1  1  1  1  1  1  2  2  2  2  3  3  3  3  4
TYPE ASSIGNMENTS      4  4  4  2  3  4  2  3  4  5  6  7  8  9 10  1  1  1  1  1
TYPE ASSIGNMENTS      1  1  1  1  1  1  2  2  2  2  3  3  3  3  4  4  4  4  2  3
TYPE ASSIGNMENTS      4  2  3  4  5  6  7  8  9 10  1  1  1  1  1  2  3  4  1  1
TYPE ASSIGNMENTS      1  1  1  2  3  4  1  1  1  1  1  2  3  4  1  1  1  1  1  2
TYPE ASSIGNMENTS      3  4  1  1  1  1  1  2  3  4  1  1  1  1  1  2  3  4  1  1
TYPE ASSIGNMENTS      1  1  1  2  3  4  1  1  1  1  1  2  3  4  1  1  1  1  1  2
TYPE ASSIGNMENTS      3  4  1  1  1  1  1  2  3  4  1  1  1  1  1  2  3  4  1  1
TYPE ASSIGNMENTS      1  1  1  2  3  4  1  1  1  1  1  2  3  4  1  1  1  1  1  2
TYPE ASSIGNMENTS      3  4
EXPONENTS  0.1357535D+05 0.2035233D+04 0.4632256D+03 0.1312002D+03 0.4285302D+02
EXPONENTS  0.1558419D+02 0.6206714D+01 0.2576490D+01 0.5769634D+00 0.2297283D+00
EXPONENTS  0.9516444D-01 0.3469723D+02 0.7958262D+01 0.2378083D+01 0.8143321D+00
EXPONENTS  0.3469723D+02 0.7958262D+01 0.2378083D+01 0.8143321D+00 0.3469723D+02
EXPONENTS  0.7958262D+01 0.2378083D+01 0.8143321D+00 0.2888755D+00 0.2888755D+00
EXPONENTS  0.2888755D+00 0.1005682D+00 0.1005682D+00 0.1005682D+00 0.8000000D+00
EXPONENTS  0.8000000D+00 0.8000000D+00 0.8000000D+00 0.8000000D+00 0.8000000D+00
EXPONENTS  0.1357535D+05 0.2035233D+04 0.4632256D+03 0.1312002D+03 0.4285302D+02
EXPONENTS  0.1558419D+02 0.6206714D+01 0.2576490D+01 0.5769634D+00 0.2297283D+00
EXPONENTS  0.9516444D-01 0.3469723D+02 0.7958262D+01 0.2378083D+01 0.8143321D+00
EXPONENTS  0.3469723D+02 0.7958262D+01 0.2378083D+01 0.8143321D+00 0.3469723D+02
EXPONENTS  0.7958262D+01 0.2378083D+01 0.8143321D+00 0.2888755D+00 0.2888755D+00
EXPONENTS  0.2888755D+00 0.1005682D+00 0.1005682D+00 0.1005682D+00 0.8000000D+00
EXPONENTS  0.8000000D+00 0.8000000D+00 0.8000000D+00 0.8000000D+00 0.8000000D+00
EXPONENTS  0.1357535D+05 0.2035233D+04 0.4632256D+03 0.1312002D+03 0.4285302D+02
EXPONENTS  0.1558419D+02 0.6206714D+01 0.2576490D+01 0.5769634D+00 0.2297283D+00
EXPONENTS  0.9516444D-01 0.3469723D+02 0.7958262D+01 0.2378083D+01 0.8143321D+00
EXPONENTS  0.3469723D+02 0.7958262D+01 0.2378083D+01 0.8143321D+00 0.3469723D+02
EXPONENTS  0.7958262D+01 0.2378083D+01 0.8143321D+00 0.2888755D+00 0.2888755D+00
EXPONENTS  0.2888755D+00 0.1005682D+00 0.1005682D+00 0.1005682D+00 0.8000000D+00
EXPONENTS  0.8000000D+00 0.8000000D+00 0.8000000D+00 0.8000000D+00 0.8000000D+00
EXPONENTS  0.1357535D+05 0.2035233D+04 0.4632256D+03 0.1312002D+03 0.4285302D+02
EXPONENTS  0.1558419D+02 0.6206714D+01 0.2576490D+01 0.5769634D+00 0.2297283D+00
EXPONENTS  0.9516444D-01 0.3469723D+02 0.7958262D+01 0.2378083D+01 0.8143321D+00
EXPONENTS  0.3469723D+02 0.7958262D+01 0.2378083D+01 0.8143321D+00 0.3469723D+02
EXPONENTS  0.7958262D+01 0.2378083D+01 0.8143321D+00 0.2888755D+00 0.2888755D+00
EXPONENTS  0.2888755D+00 0.1005682D+00 0.1005682D+00 0.1005682D+00 0.8000000D+00
EXPONENTS  0.8000000D+00 0.8000000D+00 0.8000000D+00 0.8000000D+00 0.8000000D+00
EXPONENTS  0.1357535D+05 0.2035233D+04 0.4632256D+03 0.1312002D+03 0.4285302D+02
EXPONENTS  0.1558419D+02 0.6206714D+01 0.2576490D+01 0.5769634D+00 0.2297283D+00
EXPONENTS  0.9516444D-01 0.3469723D+02 0.7958262D+01 0.2378083D+01 0.8143321D+00
EXPONENTS  0.3469723D+02 0.7958262D+01 0.2378083D+01 0.8143321D+00 0.3469723D+02
EXPONENTS  0.7958262D+01 0.2378083D+01 0.8143321D+00 0.2888755D+00 0.2888755D+00
EXPONENTS  0.2888755D+00 0.1005682D+00 0.1005682D+00 0.1005682D+00 0.8000000D+00
EXPONENTS  0.8000000D+00 0.8000000D+00 0.8000000D+00 0.8000000D+00 0.8000000D+00
EXPONENTS  0.1357535D+05 0.2035233D+04 0.4632256D+03 0.1312002D+03 0.4285302D+02
EXPONENTS  0.1558419D+02 0.6206714D+01 0.2576490D+01 0.5769634D+00 0.2297283D+00
EXPONENTS  0.9516444D-01 0.3469723D+02 0.7958262D+01 0.2378083D+01 0.8143321D+00
EXPONENTS  0.3469723D+02 0.7958262D+01 0.2378083D+01 0.8143321D+00 0.3469723D+02
EXPONENTS  0.7958262D+01 0.2378083D+01 0.8143321D+00 0.2888755D+00 0.2888755D+00
EXPONENTS  0.2888755D+00 0.1005682D+00 0.1005682D+00 0.1005682D+00 0.8000000D+00
EXPONENTS  0.8000000D+00 0.8000000D+00 0.8000000D+00 0.8000000D+00 0.8000000D+00
EXPONENTS  0.3406134D+02 0.5123575D+01 0.1164663D+01 0.3272304D+00 0.1030724D+00
EXPONENTS  0.8000000D+00 0.8000000D+00 0.8000000D+00 0.3406134D+02 0.5123575D+01
EXPONENTS  0.1164663D+01 0.3272304D+00 0.1030724D+00 0.8000000D+00 0.8000000D+00
EXPONENTS  0.8000000D+00 0.3406134D+02 0.5123575D+01 0.1164663D+01 0.3272304D+00
EXPONENTS  0.1030724D+00 0.8000000D+00 0.8000000D+00 0.8000000D+00 0.3406134D+02
EXPONENTS  0.5123575D+01 0.1164663D+01 0.3272304D+00 0.1030724D+00 0.8000000D+00
EXPONENTS  0.8000000D+00 0.8000000D+00 0.3406134D+02 0.5123575D+01 0.1164663D+01
EXPONENTS  0.3272304D+00 0.1030724D+00 0.8000000D+00 0.8000000D+00 0.8000000D+00
EXPONENTS  0.3406134D+02 0.5123575D+01 0.1164663D+01 0.3272304D+00 0.1030724D+00
EXPONENTS  0.8000000D+00 0.8000000D+00 0.8000000D+00 0.3406134D+02 0.5123575D+01
EXPONENTS  0.1164663D+01 0.3272304D+00 0.1030724D+00 0.8000000D+00 0.8000000D+00
EXPONENTS  0.8000000D+00 0.3406134D+02 0.5123575D+01 0.1164663D+01 0.3272304D+00
EXPONENTS  0.1030724D+00 0.8000000D+00 0.8000000D+00 0.8000000D+00 0.3406134D+02
EXPONENTS  0.5123575D+01 0.1164663D+01 0.3272304D+00 0.1030724D+00 0.8000000D+00
EXPONENTS  0.8000000D+00 0.8000000D+00 0.3406134D+02 0.5123575D+01 0.1164663D+01
EXPONENTS  0.3272304D+00 0.1030724D+00 0.8000000D+00 0.8000000D+00 0.8000000D+00
EXPONENTS  0.3406134D+02 0.5123575D+01 0.1164663D+01 0.3272304D+00 0.1030724D+00
EXPONENTS  0.8000000D+00 0.8000000D+00 0.8000000D+00 0.3406134D+02 0.5123575D+01
EXPONENTS  0.1164663D+01 0.3272304D+00 0.1030724D+00 0.8000000D+00 0.8000000D+00
EXPONENTS  0.8000000D+00 0.3406134D+02 0.5123575D+01 0.1164663D+01 0.3272304D+00
EXPONENTS  0.1030724D+00 0.8000000D+00 0.8000000D+00 0.8000000D+00 0.3406134D+02
EXPONENTS  0.5123575D+01 0.1164663D+01 0.3272304D+00 0.1030724D+00 0.8000000D+00
EXPONENTS  0.8000000D+00 0.8000000D+00
MO    1     MO 0.0        OCC NO =    2.0000000  ORB. ENERGY =  -10.160330
  0.28895825D-02  0.53930431D-02  0.92045019D-02  0.14304716D-01  0.19160158D-01
  0.19681633D-01  0.12798711D-01  0.37926288D-02 -0.64794135D-04  0.83701165D-03
 -0.13540220D-02 -0.90745290D-04 -0.96858270D-04 -0.84822499D-04 -0.53564352D-04
 -0.37821835D-07 -0.40369671D-07 -0.35353268D-07 -0.22325149D-07 -0.26657969D-05
 -0.28453761D-05 -0.24918049D-05 -0.15735438D-05 -0.25841868D-03 -0.23188777D-06
  0.69395250D-04  0.27511281D-03  0.19436012D-06  0.46411831D-05 -0.21776520D-03
  0.13609498D-03  0.81670222D-04 -0.61095106D-06 -0.96800609D-04 -0.16846558D-06
  0.17637184D+00  0.32917590D+00  0.56181642D+00  0.87311885D+00  0.11694811D+01
  0.12013105D+01  0.77767068D+00  0.23044635D+00  0.13088650D-01 -0.61621669D-02
  0.53550165D-02  0.11090137D-03  0.11837215D-03  0.10366303D-03  0.65461912D-04
  0.12900649D-06  0.13769690D-06  0.12058646D-06  0.76148845D-07  0.11071186D-03
  0.11816987D-03  0.10348589D-03  0.65350049D-04 -0.32040603D-03 -0.44215821D-06
 -0.50366055D-03 -0.58953745D-04  0.15835214D-06  0.28313344D-03 -0.30806894D-03
  0.47591390D-03 -0.16784496D-03 -0.81565476D-06  0.54048596D-03 -0.43543425D-06
  0.85556297D-02  0.15968009D-01  0.27253179D-01  0.42354163D-01  0.56730416D-01
  0.58274425D-01  0.37786818D-01  0.11197329D-01  0.35824054D-03  0.57625180D-03
 -0.16701990D-02  0.12886921D-04  0.13755037D-04  0.12045813D-04  0.76067810D-05
  0.41894036D-07  0.44716192D-07  0.39159683D-07  0.24728852D-07  0.26631154D-04
  0.28425139D-04  0.24892984D-04  0.15719609D-04  0.17302895D-03 -0.16977379D-06
 -0.35852587D-03 -0.12508557D-03  0.10810127D-06  0.54252235D-03  0.10902809D-03
  0.80909090D-04 -0.18993718D-03 -0.66565164D-07 -0.57541930D-04 -0.54947320D-06
 -0.88385379D-02 -0.16496022D-01 -0.28154357D-01 -0.43754684D-01 -0.58606315D-01
 -0.60201380D-01 -0.39037699D-01 -0.11568001D-01 -0.36840102D-03 -0.59885920D-03
  0.17143025D-02  0.14159080D-04  0.15112894D-04  0.13234941D-04  0.83577004D-05
 -0.49587027D-08 -0.52927415D-08 -0.46350566D-08 -0.29269805D-08  0.24617134D-04
  0.26275446D-04  0.23010415D-04  0.14530791D-04  0.18364845D-03 -0.11001353D-06
 -0.36608749D-03 -0.13056983D-03  0.63153031D-06  0.55243658D-03 -0.10665387D-03
 -0.87416853D-04  0.19407073D-03 -0.71125796D-07  0.50303791D-04  0.61607695D-06
 -0.18197577D+00 -0.33963494D+00 -0.57966725D+00 -0.90086082D+00 -0.12066396D+01
 -0.12394802D+01 -0.80238056D+00 -0.23776861D+00 -0.13503099D-01  0.63539395D-02
 -0.55058730D-02  0.11537505D-03  0.12314719D-03  0.10784472D-03  0.68102595D-04
  0.29350707D-06  0.31327892D-06  0.27435036D-06  0.17324884D-06  0.11414597D-03
  0.12183532D-03  0.10669586D-03  0.67377107D-04 -0.33175040D-03 -0.12242866D-05
 -0.52019093D-03 -0.54225479D-04  0.27002822D-06  0.28914981D-03  0.31856679D-03
 -0.49158920D-03  0.17302241D-03  0.15795124D-05 -0.55758986D-03  0.94626169D-06
 -0.29817349D-02 -0.55650340D-02 -0.94980450D-02 -0.14760911D-01 -0.19771199D-01
 -0.20309304D-01 -0.13206692D-01 -0.39135253D-02  0.66514184D-04 -0.86329263D-03
  0.14001033D-02 -0.93589678D-04 -0.99894267D-04 -0.87481239D-04 -0.55243313D-04
 -0.17849290D-06 -0.19051693D-06 -0.16684297D-06 -0.10535926D-06 -0.25509595D-05
 -0.27228028D-05 -0.23844627D-05 -0.15057585D-05 -0.26736420D-03 -0.21394185D-06
  0.71249138D-04  0.28526242D-03  0.40100165D-06  0.53585925D-05  0.22428731D-03
 -0.14004716D-03 -0.84240143D-04  0.11518220D-05  0.10043088D-03  0.27696772D-06
 -0.98719549D-05 -0.17816861D-04 -0.26303643D-04 -0.11765656D-03  0.10223810D-03
  0.11792385D-03  0.72777470D-07 -0.13386245D-03 -0.43489253D-05 -0.78489213D-05
 -0.11587632D-04 -0.22405315D-03  0.50788053D-04  0.22089135D-03 -0.14924614D-03
  0.67141731D-04 -0.43645657D-05 -0.78771492D-05 -0.11629306D-04 -0.22390355D-03
  0.50718971D-04  0.22062957D-03  0.14950126D-03  0.67015027D-04  0.64171917D-05
  0.11581719D-04  0.17098490D-04 -0.38668178D-04 -0.83950513D-03 -0.19991755D-03
 -0.69081341D-03 -0.27638669D-03  0.64266119D-05  0.11598721D-04  0.17123590D-04
 -0.38784887D-04 -0.83963723D-03 -0.20081847D-03  0.69031680D-03 -0.27731757D-03
 -0.17334761D-04 -0.31285702D-04 -0.46188155D-04 -0.10795429D-03 -0.12727238D-03
 -0.58116143D-04  0.85888214D-04  0.17313074D-03 -0.17320440D-04 -0.31259854D-04
 -0.46149996D-04 -0.10818640D-03 -0.12759339D-03 -0.57676878D-04 -0.85855526D-04
  0.17325277D-03  0.17294444D-04  0.31212937D-04  0.46080730D-04  0.11698853D-03
  0.12577991D-03 -0.55851335D-04  0.94221609D-04  0.17935340D-03  0.17298670D-04
  0.31220563D-04  0.46091989D-04  0.11677279D-03  0.12555771D-03 -0.55907629D-04
 -0.93810110D-04  0.17955861D-03 -0.65609388D-05 -0.11841154D-04 -0.17481502D-04
  0.39313230D-04  0.86341775D-03 -0.20527243D-03 -0.71338220D-03 -0.28601968D-03
 -0.65394204D-05 -0.11802317D-04 -0.17424166D-04  0.39190836D-04  0.86326565D-03
 -0.20746077D-03  0.71191182D-03 -0.28783389D-03  0.45761277D-05  0.82589752D-05
  0.12193009D-04  0.23018290D-03 -0.51348850D-04  0.22764679D-03 -0.15337830D-03
  0.69104878D-04  0.10182087D-04  0.18376586D-04  0.27129985D-04  0.12135869D-03
 -0.10538524D-03  0.12222873D-03 -0.47230996D-07 -0.13810993D-03  0.45732286D-05
  0.82537430D-05  0.12185284D-04  0.23026494D-03 -0.51439299D-04  0.22721674D-03
  0.15430954D-03  0.68657674D-04
MO    2     MO 0.0        OCC NO =    2.0000000  ORB. ENERGY =  -10.160329
 -0.29901991D-02 -0.55808313D-02 -0.95250068D-02 -0.14802812D-01 -0.19827323D-01
 -0.20366956D-01 -0.13238819D-01 -0.39230456D-02  0.54003403D-04 -0.84842192D-03
  0.14930735D-02  0.92741136D-04  0.98988564D-04  0.86688080D-04  0.54742443D-04
  0.10325577D-06  0.11021151D-06  0.96516443D-07  0.60948932D-07 -0.37418314D-05
 -0.39938967D-05 -0.34976084D-05 -0.22086961D-05  0.28972853D-03  0.72299274D-07
 -0.57979312D-04 -0.32885649D-03 -0.16329761D-06 -0.23015808D-04  0.21274354D-03
 -0.12686553D-03 -0.85878012D-04  0.45597832D-06  0.11988883D-03  0.90440960D-08
 -0.18195677D+00 -0.33959947D+00 -0.57960672D+00 -0.90076675D+00 -0.12065136D+01
 -0.12393508D+01 -0.80231770D+00 -0.23774998D+00 -0.13454298D-01  0.62239077D-02
 -0.49042314D-02 -0.14190618D-03 -0.15146557D-03 -0.13264421D-03 -0.83763164D-04
 -0.15582591D-06 -0.16632299D-06 -0.14565541D-06 -0.91979581D-07 -0.11071469D-03
 -0.11817289D-03 -0.10348853D-03 -0.65351720D-04  0.36574715D-03  0.55551230D-06
  0.53671402D-03 -0.14977134D-03 -0.20243067D-06 -0.19664155D-03  0.33733571D-03
 -0.50760917D-03  0.17027345D-03  0.88326748D-06 -0.55894953D-03  0.38695535D-06
 -0.92009550D-02 -0.17172428D-01 -0.29308804D-01 -0.45548810D-01 -0.61009419D-01
 -0.62669889D-01 -0.40681157D-01 -0.12055005D-01 -0.33195932D-03 -0.73101720D-03
  0.14341240D-02 -0.40801295D-04 -0.43549840D-04 -0.38138264D-04 -0.24083839D-04
 -0.82594284D-07 -0.88158178D-07 -0.77203496D-07 -0.48753046D-07  0.63958668D-04
  0.68267189D-04  0.59784194D-04  0.37752974D-04 -0.34214149D-03 -0.39151793D-07
  0.24721772D-03  0.17671669D-03 -0.17313131D-06 -0.32509917D-03  0.74578393D-04
 -0.20919568D-03  0.13461729D-03  0.44820364D-06 -0.23046063D-03  0.19169509D-06
 -0.89297368D-02 -0.16666233D-01 -0.28444863D-01 -0.44206159D-01 -0.59211034D-01
 -0.60822557D-01 -0.39483267D-01 -0.11700036D-01 -0.32066132D-03 -0.71259545D-03
  0.13812135D-02  0.40368341D-04  0.43087720D-04  0.37733567D-04  0.23828278D-04
 -0.12219592D-06 -0.13042755D-06 -0.11422040D-06 -0.72128762D-07 -0.64760426D-04
 -0.69122958D-04 -0.60533623D-04 -0.38226229D-04  0.33656974D-03  0.20857510D-06
 -0.23588038D-03 -0.17267582D-03  0.42900971D-07  0.30795487D-03  0.77970371D-04
 -0.20656598D-03  0.12859561D-03  0.29183994D-06 -0.23215373D-03  0.61497924D-06
 -0.17635222D+00 -0.32913929D+00 -0.56175394D+00 -0.87302175D+00 -0.11693511D+01
 -0.12011769D+01 -0.77760579D+00 -0.23042712D+00 -0.13038293D-01  0.60279951D-02
 -0.47342671D-02  0.13829482D-03  0.14761093D-03  0.12926855D-03  0.81631478D-04
  0.32819759D-06  0.35030635D-06  0.30677669D-06  0.19372566D-06  0.10715941D-03
  0.11437811D-03  0.10016530D-03  0.63253138D-04 -0.35549105D-03 -0.11984035D-05
 -0.52069367D-03  0.15155855D-03  0.48316751D-06  0.18767943D-03  0.32744310D-03
 -0.49244141D-03  0.16499831D-03  0.16688016D-05 -0.54187823D-03  0.10353754D-05
 -0.28983376D-02 -0.54093833D-02 -0.92323904D-02 -0.14348057D-01 -0.19218211D-01
 -0.19741265D-01 -0.12831949D-01 -0.38024783D-02  0.51878093D-04 -0.82165961D-03
  0.14499887D-02 -0.89871062D-04 -0.95925150D-04 -0.84005330D-04 -0.53048320D-04
 -0.99590112D-07 -0.10629892D-06 -0.93090034D-07 -0.58785198D-07  0.38285781D-05
  0.40864870D-05  0.35786933D-05  0.22599002D-05 -0.28149228D-03 -0.40087306D-06
  0.55691890D-04  0.32010205D-03  0.55013692D-06  0.22855026D-04  0.20584469D-03
 -0.12249319D-03 -0.83351500D-04  0.11662370D-05  0.11689341D-03  0.35915556D-06
  0.10041881D-04  0.18123542D-04  0.26756407D-04  0.12076715D-03 -0.10233200D-03
 -0.13991426D-03 -0.57047106D-07  0.13874456D-03  0.75917482D-05  0.13701554D-04
  0.20228074D-04  0.19905999D-03 -0.20344297D-04 -0.21526885D-03  0.14191867D-03
 -0.57882791D-04  0.75822188D-05  0.13684355D-04  0.20202684D-04  0.19920199D-03
 -0.20568391D-04 -0.21508870D-03 -0.14233055D-03 -0.57930278D-04 -0.42400389D-05
 -0.76524037D-05 -0.11297506D-04  0.18129122D-04  0.77282442D-03  0.19483617D-03
  0.71855932D-03  0.32608769D-03 -0.42435702D-05 -0.76587769D-05 -0.11306915D-04
  0.18171687D-04  0.77272462D-03  0.19584295D-03 -0.71790209D-03  0.32693467D-03
 -0.77954833D-06 -0.14069254D-05 -0.20770923D-05  0.28382996D-03 -0.54007532D-04
 -0.63164114D-04 -0.26219326D-03 -0.20305457D-03 -0.76651938D-06 -0.13834108D-05
 -0.20423769D-05  0.28381487D-03 -0.54373158D-04 -0.63607033D-04  0.26182595D-03
 -0.20356033D-03 -0.13076994D-05 -0.23601301D-05 -0.34843411D-05  0.28029195D-03
 -0.58345992D-04  0.64849237D-04  0.25953070D-03  0.19754560D-03 -0.13215545D-05
 -0.23851358D-05 -0.35212579D-05  0.28031854D-03 -0.57958400D-04  0.65458910D-04
 -0.25887812D-03  0.19804199D-03 -0.40439566D-05 -0.72985152D-05 -0.10775049D-04
  0.16952779D-04  0.74607025D-03 -0.18796194D-03 -0.69700449D-03 -0.31673283D-03
 -0.40356438D-05 -0.72835123D-05 -0.10752899D-04  0.16940653D-04  0.74617058D-03
 -0.19000582D-03  0.69562984D-03 -0.31866350D-03  0.74603699D-05  0.13464443D-04
  0.19878019D-04  0.19194243D-03 -0.18919645D-04  0.20832155D-03 -0.13691513D-03
  0.56008514D-04  0.97253758D-05  0.17552316D-04  0.25913086D-04  0.11705473D-03
 -0.99085962D-04  0.13618411D-03 -0.90762886D-08 -0.13452393D-03  0.74701537D-05
  0.13482101D-04  0.19904088D-04  0.19183140D-03 -0.18746414D-04  0.20790929D-03
  0.13763348D-03  0.55498082D-04
MO    3     MO 0.0        OCC NO =    2.0000000  ORB. ENERGY =  -10.158286
 -0.37525346D-03 -0.70036348D-03 -0.11953357D-02 -0.18576711D-02 -0.24882195D-02
 -0.25559404D-02 -0.16175370D-02 -0.47932309D-03 -0.72289405D-04  0.96981533D-04
 -0.18567925D-03  0.40673030D-04  0.43412934D-04  0.38018370D-04  0.24008127D-04
  0.50261422D-07  0.53647240D-07  0.46980944D-07  0.29667881D-07 -0.34231643D-04
 -0.36537629D-04 -0.31997402D-04 -0.20205961D-04  0.10828186D-03  0.71235765D-07
  0.26651360D-04 -0.26532289D-05  0.46975480D-07 -0.10273434D-03 -0.72128829D-04
  0.50823929D-04  0.21304900D-04 -0.11153292D-06  0.13402669D-03  0.15320560D-06
 -0.90824484D-02 -0.16951250D-01 -0.28931312D-01 -0.44962149D-01 -0.60223629D-01
 -0.61862712D-01 -0.39943697D-01 -0.11836475D-01 -0.99755311D-03  0.12872583D-02
 -0.17089302D-02 -0.28496452D-04 -0.30416091D-04 -0.26636537D-04 -0.16820641D-04
  0.93830566D-08  0.10015138D-07  0.87706404D-08  0.55385502D-08  0.59864482D-04
  0.63897202D-04  0.55957229D-04  0.35336293D-04 -0.19232462D-03 -0.78764852D-07
  0.18098988D-03  0.15924878D-03 -0.11892645D-06 -0.26502229D-03  0.19652136D-04
  0.15992603D-03 -0.17957817D-03  0.48287910D-07  0.24007086D-03 -0.18595958D-06
  0.17916778D+00  0.33439418D+00  0.57072265D+00  0.88696001D+00  0.11880204D+01
  0.12203543D+01  0.79009023D+00  0.23412663D+00  0.13041344D-01 -0.54272166D-02
  0.37058104D-02 -0.11821484D-03 -0.12617829D-03 -0.11049916D-03 -0.69778844D-04
 -0.23690008D-06 -0.25285866D-06 -0.22143802D-06 -0.13983535D-06 -0.70860116D-04
 -0.75633548D-04 -0.66235196D-04 -0.41826702D-04 -0.34991963D-04  0.53108330D-06
  0.62829067D-03  0.29001732D-03  0.15282980D-06 -0.16588576D-03 -0.50442402D-03
  0.59926387D-03 -0.94839846D-04 -0.19501448D-05  0.41932462D-03 -0.51909600D-06
  0.17920982D+00  0.33447264D+00  0.57085656D+00  0.88716813D+00  0.11882992D+01
  0.12206406D+01  0.79027557D+00  0.23418155D+00  0.13044560D-01 -0.54289581D-02
  0.37075371D-02  0.11821472D-03  0.12617816D-03  0.11049905D-03  0.69778774D-04
  0.13017172D-06  0.13894063D-06  0.12167564D-06  0.76836650D-07  0.70904581D-04
  0.75681008D-04  0.66276759D-04  0.41852948D-04  0.34824902D-04 -0.55815281D-06
 -0.62839800D-03 -0.28987188D-03 -0.21316100D-06  0.16594178D-03 -0.50446520D-03
  0.59935259D-03 -0.94887396D-04 -0.17989610D-05  0.41947027D-03 -0.12707688D-05
 -0.90838426D-02 -0.16953852D-01 -0.28935753D-01 -0.44969051D-01 -0.60232874D-01
 -0.61872208D-01 -0.39949828D-01 -0.11838291D-01 -0.99772246D-03  0.12875179D-02
 -0.17094186D-02  0.28520662D-04  0.30441932D-04  0.26659167D-04  0.16834932D-04
 -0.32470189D-07 -0.34657516D-07 -0.30350915D-07 -0.19166225D-07 -0.59868161D-04
 -0.63901129D-04 -0.55960668D-04 -0.35338465D-04  0.19237060D-03 -0.26652622D-07
 -0.18109895D-03 -0.15925241D-03  0.11972944D-06  0.26512371D-03  0.19657273D-04
  0.15993984D-03 -0.17959711D-03 -0.22264913D-06  0.24004131D-03 -0.61069062D-06
 -0.37498611D-03 -0.69986451D-03 -0.11944841D-02 -0.18563476D-02 -0.24864468D-02
 -0.25541194D-02 -0.16163639D-02 -0.47897547D-03 -0.72259710D-04  0.96962838D-04
 -0.18556366D-03 -0.40697172D-04 -0.43438702D-04 -0.38040936D-04 -0.24022378D-04
  0.43274097D-07  0.46189220D-07  0.40449670D-07  0.25543463D-07  0.34251771D-04
  0.36559112D-04  0.32016216D-04  0.20217841D-04 -0.10829859D-03 -0.23891454D-06
 -0.26685946D-04  0.26789506D-05  0.22191434D-06  0.10273348D-03 -0.72124261D-04
  0.50833241D-04  0.21291020D-04 -0.15012273D-06  0.13426135D-03  0.57503705D-07
  0.52842379D-06  0.95369695D-06  0.14079755D-05 -0.48654765D-05 -0.94163570D-04
 -0.13258780D-05 -0.10396319D-07  0.50534836D-05  0.80216890D-05  0.14477509D-04
  0.21373644D-04 -0.37987623D-04  0.12220792D-03  0.45305925D-04 -0.65015699D-04
 -0.39636603D-05  0.80304686D-05  0.14493355D-04  0.21397037D-04 -0.38057684D-04
  0.12196269D-03  0.45366104D-04  0.65129401D-04 -0.40864652D-05  0.29949612D-06
  0.54052929D-06  0.79800195D-06 -0.27838395D-03  0.15801479D-03  0.46109568D-04
 -0.18137282D-03 -0.23265034D-03  0.28540784D-06  0.51510282D-06  0.76046398D-06
 -0.27821349D-03  0.15815023D-03  0.45799862D-04  0.18111778D-03 -0.23271135D-03
 -0.43151752D-06 -0.77880093D-06 -0.11497706D-05 -0.20511224D-03 -0.83970376D-03
  0.35892563D-03  0.82249691D-03  0.33925980D-03 -0.42729042D-06 -0.77117189D-06
 -0.11385075D-05 -0.20503549D-03 -0.83985326D-03  0.36067474D-03 -0.82122981D-03
  0.34027047D-03 -0.42051316D-06 -0.75894031D-06 -0.11204496D-05 -0.20499702D-03
 -0.84010443D-03 -0.35897608D-03 -0.82271737D-03 -0.33875137D-03 -0.43113868D-06
 -0.77811720D-06 -0.11487611D-05 -0.20505142D-03 -0.83985538D-03 -0.36064837D-03
  0.82126408D-03 -0.34086733D-03  0.28271043D-06  0.51023455D-06  0.75327679D-06
 -0.27824490D-03  0.15808654D-03 -0.46191557D-04  0.18146234D-03  0.23238939D-03
  0.29230423D-06  0.52754939D-06  0.77883928D-06 -0.27839558D-03  0.15806090D-03
 -0.45740965D-04 -0.18102499D-03  0.23305025D-03  0.80351829D-05  0.14501863D-04
  0.21409598D-04 -0.38069425D-04  0.12197408D-03 -0.45500014D-04  0.65083608D-04
  0.39865775D-05  0.53656484D-06  0.96838988D-06  0.14296672D-05 -0.48548238D-05
 -0.94182588D-04  0.13319540D-05  0.10642207D-07 -0.51025393D-05  0.80242867D-05
  0.14482198D-04  0.21380565D-04 -0.38051228D-04  0.12221479D-03 -0.45175834D-04
 -0.65173088D-04  0.40743606D-05
MO    4     MO 0.0        OCC NO =    2.0000000  ORB. ENERGY =  -10.158072
  0.34779315D-03  0.64911226D-03  0.11078634D-02  0.17217304D-02  0.23061365D-02
  0.23689017D-02  0.15206530D-02  0.45061355D-03  0.23831363D-04  0.19758390D-04
 -0.40654243D-03 -0.46517752D-04 -0.49651381D-04 -0.43481617D-04 -0.27458100D-04
 -0.70697205D-07 -0.75459662D-07 -0.66082918D-07 -0.41730540D-07  0.29298795D-04
  0.31272483D-04  0.27386512D-04  0.17294241D-04 -0.89012647D-04 -0.14963384D-07
 -0.68528751D-05  0.10982922D-03  0.31161965D-07 -0.70198393D-05  0.82440879D-04
 -0.36341392D-04 -0.46099486D-04  0.11792050D-06 -0.13946280D-03 -0.14435635D-06
  0.87132092D-02  0.16262111D-01  0.27755134D-01  0.43134252D-01  0.57775289D-01
  0.59347736D-01  0.38352364D-01  0.11364917D-01  0.93724242D-03 -0.12233210D-02
  0.20975290D-02  0.11337441D-03  0.12101178D-03  0.10597465D-03  0.66921674D-04
 -0.42667686D-07 -0.45541958D-07 -0.39882838D-07 -0.25185516D-07 -0.57780529D-04
 -0.61672866D-04 -0.54009292D-04 -0.34106196D-04  0.18659589D-03 -0.12096167D-08
 -0.41107836D-03 -0.26049344D-04  0.78631410D-07  0.42753613D-03 -0.81835228D-04
 -0.51011522D-04  0.13284675D-03  0.60659879D-07  0.13562985D-03  0.34058121D-06
 -0.17924822D+00 -0.33454431D+00 -0.57097889D+00 -0.88735823D+00 -0.11885538D+01
 -0.12209022D+01 -0.79027887D+00 -0.23418252D+00 -0.13673641D-01  0.73778145D-02
 -0.73586732D-02  0.51733381D-04  0.55218357D-04  0.48356831D-04  0.30536737D-04
  0.74657913D-07  0.79687180D-07  0.69785117D-07  0.44068433D-07  0.13928791D-03
  0.14867092D-03  0.13019683D-03  0.82217674D-04 -0.75760859D-03 -0.92120867D-06
 -0.43866433D-03  0.62504211D-03  0.74534516D-06  0.21995481D-03  0.20819206D-03
 -0.36154230D-03  0.15335024D-03  0.71327976D-06 -0.59905083D-03  0.21443266D-06
  0.17920618D+00  0.33446585D+00  0.57084497D+00  0.88715012D+00  0.11882750D+01
  0.12206159D+01  0.79009348D+00  0.23412759D+00  0.13670576D-01 -0.73765367D-02
  0.73578117D-02  0.51707363D-04  0.55190585D-04  0.48332511D-04  0.30521379D-04
  0.27344655D-06  0.29186705D-06  0.25559916D-06  0.16140769D-06  0.13927531D-03
  0.14865748D-03  0.13018505D-03  0.82210238D-04 -0.75761971D-03 -0.14219954D-05
 -0.43851520D-03  0.62510879D-03  0.89474715D-06  0.21992062D-03 -0.20807247D-03
  0.36139929D-03 -0.15332682D-03 -0.49868505D-06  0.59894464D-03 -0.51604593D-06
 -0.87119143D-02 -0.16259695D-01 -0.27751009D-01 -0.43127841D-01 -0.57766703D-01
 -0.59338916D-01 -0.38346680D-01 -0.11363232D-01 -0.93707632D-03  0.12230642D-02
 -0.20971513D-02  0.11337662D-03  0.12101414D-03  0.10597672D-03  0.66922979D-04
  0.19022818D-06  0.20304274D-06  0.17781231D-06  0.11228626D-06 -0.57776359D-04
 -0.61668415D-04 -0.54005394D-04 -0.34103734D-04  0.18653571D-03 -0.42179698D-06
 -0.41102192D-03 -0.26015034D-04  0.76192460D-06  0.42747161D-03  0.81844796D-04
  0.50973681D-04 -0.13281848D-03 -0.86949106D-07 -0.13568991D-03 -0.63431562D-06
 -0.34712009D-03 -0.64785608D-03 -0.11057194D-02 -0.17183985D-02 -0.23016736D-02
 -0.23643173D-02 -0.15176771D-02 -0.44973171D-03 -0.23782332D-04 -0.19794017D-04
  0.40657133D-03 -0.46487456D-04 -0.49619044D-04 -0.43453298D-04 -0.27440217D-04
  0.33228883D-07  0.35467318D-07  0.31060090D-07  0.19614060D-07  0.29276642D-04
  0.31248838D-04  0.27365805D-04  0.17281165D-04 -0.89006887D-04 -0.20207934D-06
 -0.68084091D-05  0.10982986D-03  0.17069200D-06 -0.70487944D-05 -0.82449725D-04
  0.36335005D-04  0.46114720D-04 -0.10700894D-06  0.13921949D-03  0.20443940D-06
 -0.19726342D-05 -0.35602015D-05 -0.52560478D-05  0.31417716D-04  0.50038300D-04
 -0.28359235D-04 -0.22789940D-07 -0.83515261D-05 -0.12488808D-04 -0.22539745D-04
 -0.33276200D-04  0.74283104D-04 -0.43176344D-04 -0.56264739D-05  0.73315259D-04
  0.64796138D-05 -0.12500156D-04 -0.22560227D-04 -0.33306438D-04  0.74348224D-04
 -0.43081098D-04 -0.55881812D-05 -0.73293372D-04  0.65484624D-05  0.20590692D-04
  0.37161990D-04  0.54863522D-04  0.11688429D-03  0.19616122D-04 -0.22413258D-04
  0.18727195D-04  0.13975471D-03  0.20570573D-04  0.37125680D-04  0.54809916D-04
  0.11695308D-03  0.20037951D-04 -0.22544012D-04 -0.18574904D-04  0.13986229D-03
 -0.16115852D-04 -0.29085819D-04 -0.42940393D-04 -0.18376411D-03  0.85717572D-03
 -0.21595665D-04 -0.55818419D-03 -0.21740587D-03 -0.16111917D-04 -0.29078717D-04
 -0.42929908D-04 -0.18364647D-03  0.85701940D-03 -0.22845305D-04  0.55793536D-03
 -0.21827153D-03  0.16117524D-04  0.29088837D-04  0.42944848D-04  0.18368556D-03
 -0.85685260D-03 -0.21622346D-04 -0.55819009D-03 -0.21712054D-03  0.16110646D-04
  0.29076424D-04  0.42926523D-04  0.18381712D-03 -0.85694912D-03 -0.22646137D-04